 Entering Gaussian System, Link 0=/usr/local/gaussian/2016-A.03/g16/g16
 Input=cis-2.inp
 Output=cis-2.log
 Initial command:
 /usr/local/gaussian/2016-A.03/g16/l1.exe "/lustre/scratch/tmp/pbs.9326130.achilles/Gau-144589.inp" -scrdir="/lustre/scratch/tmp/pbs.9326130.achilles/"
 Entering Link 1 = /usr/local/gaussian/2016-A.03/g16/l1.exe PID=    144590.
  
 Copyright (c) 1988,1990,1992,1993,1995,1998,2003,2009,2016,
            Gaussian, Inc.  All Rights Reserved.
  
 This is part of the Gaussian(R) 16 program.  It is based on
 the Gaussian(R) 09 system (copyright 2009, Gaussian, Inc.),
 the Gaussian(R) 03 system (copyright 2003, Gaussian, Inc.),
 the Gaussian(R) 98 system (copyright 1998, Gaussian, Inc.),
 the Gaussian(R) 94 system (copyright 1995, Gaussian, Inc.),
 the Gaussian 92(TM) system (copyright 1992, Gaussian, Inc.),
 the Gaussian 90(TM) system (copyright 1990, Gaussian, Inc.),
 the Gaussian 88(TM) system (copyright 1988, Gaussian, Inc.),
 the Gaussian 86(TM) system (copyright 1986, Carnegie Mellon
 University), and the Gaussian 82(TM) system (copyright 1983,
 Carnegie Mellon University). Gaussian is a federally registered
 trademark of Gaussian, Inc.
  
 This software contains proprietary and confidential information,
 including trade secrets, belonging to Gaussian, Inc.
  
 This software is provided under written license and may be
 used, copied, transmitted, or stored only in accord with that
 written license.
  
 The following legend is applicable only to US Government
 contracts under FAR:
  
                    RESTRICTED RIGHTS LEGEND
  
 Use, reproduction and disclosure by the US Government is
 subject to restrictions as set forth in subparagraphs (a)
 and (c) of the Commercial Computer Software - Restricted
 Rights clause in FAR 52.227-19.
  
 Gaussian, Inc.
 340 Quinnipiac St., Bldg. 40, Wallingford CT 06492
  
  
 ---------------------------------------------------------------
 Warning -- This program may not be used in any manner that
 competes with the business of Gaussian, Inc. or will provide
 assistance to any competitor of Gaussian, Inc.  The licensee
 of this program is prohibited from giving any competitor of
 Gaussian, Inc. access to this program.  By using this program,
 the user acknowledges that Gaussian, Inc. is engaged in the
 business of creating and licensing software in the field of
 computational chemistry and represents and warrants to the
 licensee that it is not a competitor of Gaussian, Inc. and that
 it will not use this program in any manner prohibited above.
 ---------------------------------------------------------------
  

 Cite this work as:
 Gaussian 16, Revision A.03,
 M. J. Frisch, G. W. Trucks, H. B. Schlegel, G. E. Scuseria, 
 M. A. Robb, J. R. Cheeseman, G. Scalmani, V. Barone, 
 G. A. Petersson, H. Nakatsuji, X. Li, M. Caricato, A. V. Marenich, 
 J. Bloino, B. G. Janesko, R. Gomperts, B. Mennucci, H. P. Hratchian, 
 J. V. Ortiz, A. F. Izmaylov, J. L. Sonnenberg, D. Williams-Young, 
 F. Ding, F. Lipparini, F. Egidi, J. Goings, B. Peng, A. Petrone, 
 T. Henderson, D. Ranasinghe, V. G. Zakrzewski, J. Gao, N. Rega, 
 G. Zheng, W. Liang, M. Hada, M. Ehara, K. Toyota, R. Fukuda, 
 J. Hasegawa, M. Ishida, T. Nakajima, Y. Honda, O. Kitao, H. Nakai, 
 T. Vreven, K. Throssell, J. A. Montgomery, Jr., J. E. Peralta, 
 F. Ogliaro, M. J. Bearpark, J. J. Heyd, E. N. Brothers, K. N. Kudin, 
 V. N. Staroverov, T. A. Keith, R. Kobayashi, J. Normand, 
 K. Raghavachari, A. P. Rendell, J. C. Burant, S. S. Iyengar, 
 J. Tomasi, M. Cossi, J. M. Millam, M. Klene, C. Adamo, R. Cammi, 
 J. W. Ochterski, R. L. Martin, K. Morokuma, O. Farkas, 
 J. B. Foresman, and D. J. Fox, Gaussian, Inc., Wallingford CT, 2016.
 
 ******************************************
 Gaussian 16:  ES64L-G16RevA.03 25-Dec-2016
                 8-Aug-2019 
 ******************************************
 Default route: MAXDISK=1700GB
 ----------------------------------------------------------------------
 #P CIS(50-50,NStates=300,Conver=10,Full,NonAdiabaticCoupling)/6-31G* 6
 D Density=RhoCI GFPrint NoSymm SCF(conver=11,novaracc,FinalIteration,Q
 C,VeryTightLinEq)
 ----------------------------------------------------------------------
 1/30=1,38=1,172=1/1;
 2/12=2,15=1,17=6,18=5,40=1/2;
 3/5=1,6=6,7=1,8=2,11=9,24=100,25=1,30=1,71=1/1,2,3,8;
 4//1;
 5/5=2,6=11,8=3,17=3,20=1,38=1/8;
 8/6=1,10=90,108=300/1;
 9/9=10,15=1,41=300,42=1,48=2/14;
 10/5=5004,13=10,31=1/2;
 6/7=2,8=2,9=2,10=2,22=5/1;
 7/12=6,13=9,15=10,30=1/1,2,3,16;
 99/5=1,9=1/99;
 Leave Link    1 at Thu Aug  8 09:09:09 2019, MaxMem=           0 cpu:               0.1 elap:               0.1
 (Enter /usr/local/gaussian/2016-A.03/g16/l101.exe)
 ----
 test
 ----
 Symbolic Z-matrix:
 Charge =  0 Multiplicity = 3
 O                    -3.08471   1.12313   0.00396 
 H                    -2.11791   0.90877   0.01763 
 H                    -3.12325   2.07922  -0.24921 
 
 ITRead=  0  0  0
 MicOpt= -1 -1 -1
 NAtoms=      3 NQM=        3 NQMF=       0 NMMI=      0 NMMIF=      0
                NMic=       0 NMicF=      0.
                    Isotopes and Nuclear Properties:
 (Nuclear quadrupole moments (NQMom) in fm**2, nuclear magnetic moments (NMagM)
  in nuclear magnetons)

  Atom         1           2           3
 IAtWgt=          16           1           1
 AtmWgt=  15.9949146   1.0078250   1.0078250
 NucSpn=           0           1           1
 AtZEff=  -0.0000000  -0.0000000  -0.0000000
 NQMom=    0.0000000   0.0000000   0.0000000
 NMagM=    0.0000000   2.7928460   2.7928460
 AtZNuc=   8.0000000   1.0000000   1.0000000
 Leave Link  101 at Thu Aug  8 09:09:09 2019, MaxMem=   104857600 cpu:               0.1 elap:               0.1
 (Enter /usr/local/gaussian/2016-A.03/g16/l202.exe)
                          Input orientation:                          
 ---------------------------------------------------------------------
 Center     Atomic      Atomic             Coordinates (Angstroms)
 Number     Number       Type             X           Y           Z
 ---------------------------------------------------------------------
      1          8           0       -3.084710    1.123130    0.003960
      2          1           0       -2.117910    0.908770    0.017630
      3          1           0       -3.123250    2.079220   -0.249210
 ---------------------------------------------------------------------
                    Distance matrix (angstroms):
                    1          2          3
     1  O    0.000000
     2  H    0.990373   0.000000
     3  H    0.989792   1.565843   0.000000
 Symmetry turned off by external request.
 Stoichiometry    H2O(3)
 Framework group  CS[SG(H2O)]
 Deg. of freedom     3
 Full point group                 CS      NOp   2
 Rotational constants (GHZ):         768.6519854         409.0395129         266.9706236
 Leave Link  202 at Thu Aug  8 09:09:09 2019, MaxMem=   104857600 cpu:               0.0 elap:               0.0
 (Enter /usr/local/gaussian/2016-A.03/g16/l301.exe)
 Standard basis: 6-31G(d) (6D, 7F)
 Ernie: Thresh=  0.10000D-02 Tol=  0.10000D-05 Strict=F.
 AO basis set (Overlap normalization):
 Atom O1       Shell     1 S   6     bf    1 -     1         -5.829257073707          2.122408102283          0.007483315453
      0.5484671660D+04  0.1831074430D-02
      0.8252349460D+03  0.1395017220D-01
      0.1880469580D+03  0.6844507810D-01
      0.5296450000D+02  0.2327143360D+00
      0.1689757040D+02  0.4701928980D+00
      0.5799635340D+01  0.3585208530D+00
 Atom O1       Shell     2 SP   3    bf    2 -     5         -5.829257073707          2.122408102283          0.007483315453
      0.1553961625D+02 -0.1107775495D+00  0.7087426823D-01
      0.3599933586D+01 -0.1480262627D+00  0.3397528391D+00
      0.1013761750D+01  0.1130767015D+01  0.7271585773D+00
 Atom O1       Shell     3 SP   1    bf    6 -     9         -5.829257073707          2.122408102283          0.007483315453
      0.2700058226D+00  0.1000000000D+01  0.1000000000D+01
 Atom O1       Shell     4 D   1     bf   10 -    15         -5.829257073707          2.122408102283          0.007483315453
      0.8000000000D+00  0.1000000000D+01
 Atom H2       Shell     5 S   3     bf   16 -    16         -4.002269856478          1.717326410221          0.033315871576
      0.1873113696D+02  0.3349460434D-01
      0.2825394365D+01  0.2347269535D+00
      0.6401216923D+00  0.8137573261D+00
 Atom H2       Shell     6 S   1     bf   17 -    17         -4.002269856478          1.717326410221          0.033315871576
      0.1612777588D+00  0.1000000000D+01
 Atom H3       Shell     7 S   3     bf   18 -    18         -5.902087118548          3.929156352718         -0.470938647503
      0.1873113696D+02  0.3349460434D-01
      0.2825394365D+01  0.2347269535D+00
      0.6401216923D+00  0.8137573261D+00
 Atom H3       Shell     8 S   1     bf   19 -    19         -5.902087118548          3.929156352718         -0.470938647503
      0.1612777588D+00  0.1000000000D+01
    19 basis functions,    36 primitive gaussians,    19 cartesian basis functions
     6 alpha electrons        4 beta electrons
       nuclear repulsion energy         8.8895953853 Hartrees.
 IExCor=    0 DFT=F Ex=HF Corr=None ExCW=0 ScaHFX=  1.000000
 ScaDFX=  1.000000  1.000000  1.000000  1.000000 ScalE2=  1.000000  1.000000
 IRadAn=      5 IRanWt=     -1 IRanGd=            0 ICorTp=0 IEmpDi=  4
 NAtoms=    3 NActive=    3 NUniq=    3 SFac= 1.00D+00 NAtFMM=   60 NAOKFM=F Big=F
 Integral buffers will be    131072 words long.
 Raffenetti 2 integral format.
 Two-electron integral symmetry is turned off.
 Leave Link  301 at Thu Aug  8 09:09:09 2019, MaxMem=   104857600 cpu:               0.1 elap:               0.1
 (Enter /usr/local/gaussian/2016-A.03/g16/l302.exe)
 NPDir=0 NMtPBC=     1 NCelOv=     1 NCel=       1 NClECP=     1 NCelD=      1
         NCelK=      1 NCelE2=     1 NClLst=     1 CellRange=     0.0.
 One-electron integrals computed using PRISM.
 NBasis=    19 RedAO= T EigKep=  2.35D-02  NBF=    19
 NBsUse=    19 1.00D-06 EigRej= -1.00D+00 NBFU=    19
 Leave Link  302 at Thu Aug  8 09:09:09 2019, MaxMem=   104857600 cpu:               0.1 elap:               0.1
 (Enter /usr/local/gaussian/2016-A.03/g16/l303.exe)
 DipDrv:  MaxL=1.
 Leave Link  303 at Thu Aug  8 09:09:09 2019, MaxMem=   104857600 cpu:               0.0 elap:               0.0
 (Enter /usr/local/gaussian/2016-A.03/g16/l308.exe)
 Leave Link  308 at Thu Aug  8 09:09:09 2019, MaxMem=   104857600 cpu:               0.1 elap:               0.0
 (Enter /usr/local/gaussian/2016-A.03/g16/l401.exe)
 ExpMin= 1.61D-01 ExpMax= 5.48D+03 ExpMxC= 8.25D+02 IAcc=3 IRadAn=         5 AccDes= 0.00D+00
 Harris functional with IExCor=  205 and IRadAn=       5 diagonalized for initial guess.
 HarFok:  IExCor=  205 AccDes= 0.00D+00 IRadAn=         5 IDoV= 1 UseB2=F ITyADJ=14
 ICtDFT=  3500011 ScaDFX=  1.000000  1.000000  1.000000  1.000000
 FoFCou: FMM=F IPFlag=           0 FMFlag=      100000 FMFlg1=           0
         NFxFlg=           0 DoJE=T BraDBF=F KetDBF=T FulRan=T
         wScrn=  0.000000 ICntrl=       500 IOpCl=  0 I1Cent=   200000004 NGrid=           0
         NMat0=    1 NMatS0=      1 NMatT0=    0 NMatD0=    1 NMtDS0=    0 NMtDT0=    0
 Symmetry not used in FoFCou.
 Harris En= -75.7177629639246    
 JPrj=0 DoOrth=F DoCkMO=F.
 Initial guess <Sx>= 0.0000 <Sy>= 0.0000 <Sz>= 1.0000 <S**2>= 2.0000 S= 1.0000
 Leave Link  401 at Thu Aug  8 09:09:09 2019, MaxMem=   104857600 cpu:               0.3 elap:               0.3
 (Enter /usr/local/gaussian/2016-A.03/g16/l508.exe)
 Keep R1 and R2 ints in memory in canonical form, NReq=863126.
 FoFCou: FMM=F IPFlag=           0 FMFlag=           0 FMFlg1=           0
         NFxFlg=           0 DoJE=F BraDBF=F KetDBF=F FulRan=T
         wScrn=  0.000000 ICntrl=       600 IOpCl=  0 I1Cent=           0 NGrid=           0
         NMat0=    1 NMatS0=    190 NMatT0=    0 NMatD0=    1 NMtDS0=    0 NMtDT0=    0
 Symmetry not used in FoFCou.
 Two-electron integral symmetry not used.
 Very tight linear equation convergence will be used.
 UHF wavefunction.
 Quadratic Convergence SCF Method.
 Line search only if initial step raises energy.
 Iteration   1 EE= -75.7479703674789                                    Grad=2.898D-01 Max rot=    9.6941 deg.
 Gradient too large for Newton-Raphson -- use scaled steepest descent instead.
 Alpha Gap=     0.354 HL deriv= 2.48D-05
  Beta Gap=     0.746 HL deriv= 4.13D-09
     ILin= 1 X=0.000D+00 Y=-7.574797036748D+01 DE= 0.00D+00 F= -1.96D-02
     ILin= 2 X=3.000D-01 Y=-7.575312177043D+01 DE=-5.15D-03 F= -1.48D-02
     ILin= 3 X=6.000D-01 Y=-7.575682130024D+01 DE=-8.85D-03 F= -9.91D-03
     ILin= 4 X=1.200D+00 Y=-7.575985486536D+01 DE=-1.19D-02 F= -1.98D-04
     Reject lnstep minimum 1.488D+00 FVal=-7.575992279719D+01 Lims=  6.00D-01  1.20D+00
     ILin= 5 X=2.400D+00 Y=-7.574840270469D+01 DE=-4.32D-04 F=  1.93D-02
     An  expanding polynomial of degree  5 produced  1.2122
     Minimum is close to point  4 DX=  1.22D-02 DF= -1.21D-06 DXR=  1.01D-02 DFR=  1.02D-04 which will be used.
 Iteration   2 EE= -75.7598548653627     Delta-E=       -0.011884497884 Grad=4.616D-02 Max rot=    1.3589 deg.
 Gradient too large for Newton-Raphson -- use scaled steepest descent instead.
 Alpha Gap=     0.358 HL deriv= 1.52D-04
  Beta Gap=     0.752 HL deriv= 3.77D-09
     ILin= 1 X=0.000D+00 Y=-7.575985486536D+01 DE= 0.00D+00 F= -9.69D-04
     ILin= 2 X=6.000D-01 Y=-7.576025153087D+01 DE=-3.97D-04 F= -3.53D-04
     ILin= 3 X=1.200D+00 Y=-7.576027898378D+01 DE=-4.24D-04 F=  2.61D-04
     Accept linear search using points  2 and  3.
     An  expanding polynomial of degree  3 produced  0.9179
 Iteration   3 EE= -75.7603120070145     Delta-E=       -0.000457141652 Grad=1.304D-02 Max rot=    0.3018 deg.
 Gradient too large for Newton-Raphson -- use scaled steepest descent instead.
 Alpha Gap=     0.360 HL deriv= 1.01D-04
  Beta Gap=     0.755 HL deriv= 3.27D-09
     ILin= 1 X=0.000D+00 Y=-7.576031200701D+01 DE= 0.00D+00 F= -1.44D-04
     ILin= 2 X=1.100D+00 Y=-7.576038593087D+01 DE=-7.39D-05 F=  9.70D-06
     Accept linear search using points  1 and  2.
     An  expanding polynomial of degree  2 produced  1.0449
     Minimum is close to point  2 DX= -5.51D-02 DF= -2.42D-07 DXR=  5.27D-02 DFR=  3.28D-03 which will be used.
 Iteration   4 EE= -75.7603859308682     Delta-E=       -0.000073923854 Grad=6.073D-03 Max rot=    0.2086 deg.
 QCNR:  CnvC1=1.00D-12 CnvC2=1.00D-11
 LinEq1:  Iter=  0 NonCon=     1 RMS=2.73D-04 Max=2.09D-03 NDo=     1
 AX will form     1 AO Fock derivatives at one time.
 LinEq1:  Iter=  1 NonCon=     1 RMS=1.19D-04 Max=7.22D-04 NDo=     1
 LinEq1:  Iter=  2 NonCon=     1 RMS=1.66D-05 Max=1.24D-04 NDo=     1
 LinEq1:  Iter=  3 NonCon=     1 RMS=2.40D-06 Max=1.58D-05 NDo=     1
 LinEq1:  Iter=  4 NonCon=     1 RMS=5.62D-07 Max=4.24D-06 NDo=     1
 LinEq1:  Iter=  5 NonCon=     1 RMS=1.65D-07 Max=9.39D-07 NDo=     1
 LinEq1:  Iter=  6 NonCon=     1 RMS=2.95D-08 Max=1.19D-07 NDo=     1
 LinEq1:  Iter=  7 NonCon=     1 RMS=3.58D-09 Max=2.08D-08 NDo=     1
 LinEq1:  Iter=  8 NonCon=     1 RMS=4.17D-10 Max=2.11D-09 NDo=     1
 LinEq1:  Iter=  9 NonCon=     1 RMS=4.82D-11 Max=2.45D-10 NDo=     1
 LinEq1:  Iter= 10 NonCon=     1 RMS=7.25D-12 Max=3.40D-11 NDo=     1
 LinEq1:  Iter= 11 NonCon=     0 RMS=7.08D-13 Max=2.38D-12 NDo=     1
 Linear equations converged to 1.000D-12 1.000D-11 after    11 iterations.
 Angle between quadratic step and gradient=  35.88 degrees.
     ILin= 1 X=0.000D+00 Y=-7.576038593087D+01 DE= 0.00D+00 F= -3.95D-05
     ILin= 2 X=1.000D+00 Y=-7.576040569229D+01 DE=-1.98D-05 F= -6.90D-09
     Reject lnstep minimum 1.000D+00 FVal=-7.576040569229D+01 Lims=  0.00D+00  1.00D+00
     ILin= 3 X=2.000D+00 Y=-7.576038594948D+01 DE=-1.86D-08 F=  3.95D-05
     An  expanding polynomial of degree  3 produced  1.0002
     Minimum is close to point  2 DX=  2.36D-04 DF= -1.09D-12 DXR=  2.36D-04 DFR=  5.54D-08 which will be used.
 Iteration   5 EE= -75.7604056922881     Delta-E=       -0.000019761420 Grad=2.520D-06 Max rot=    0.0001 deg.
 QCNR:  CnvC1=1.00D-12 CnvC2=1.00D-11
 LinEq1:  Iter=  0 NonCon=     1 RMS=1.26D-07 Max=8.05D-07 NDo=     1
 LinEq1:  Iter=  1 NonCon=     1 RMS=4.63D-08 Max=2.58D-07 NDo=     1
 LinEq1:  Iter=  2 NonCon=     1 RMS=1.26D-08 Max=9.47D-08 NDo=     1
 LinEq1:  Iter=  3 NonCon=     1 RMS=3.10D-09 Max=1.93D-08 NDo=     1
 LinEq1:  Iter=  4 NonCon=     1 RMS=6.56D-10 Max=2.22D-09 NDo=     1
 LinEq1:  Iter=  5 NonCon=     1 RMS=1.97D-10 Max=7.95D-10 NDo=     1
 LinEq1:  Iter=  6 NonCon=     1 RMS=2.81D-11 Max=1.09D-10 NDo=     1
 LinEq1:  Iter=  7 NonCon=     1 RMS=3.84D-12 Max=1.23D-11 NDo=     1
 LinEq1:  Iter=  8 NonCon=     0 RMS=7.79D-13 Max=3.87D-12 NDo=     1
 Linear equations converged to 1.000D-12 1.000D-11 after     8 iterations.
 Angle between quadratic step and gradient=  55.90 degrees.
     ILin= 1 X=0.000D+00 Y=-7.576040569229D+01 DE= 0.00D+00 F= -6.44D-12
     ILin= 2 X=1.000D+00 Y=-7.576040569229D+01 DE=-3.33D-12
 Iteration   6 EE= -75.7604056922914     Delta-E=       -0.000000000003 Grad=1.750D-09 Max rot=    0.0000 deg.
 QCNR:  CnvC1=1.00D-12 CnvC2=1.00D-11
 LinEq1:  Iter=  0 NonCon=     1 RMS=4.17D-11 Max=2.07D-10 NDo=     1
 LinEq1:  Iter=  1 NonCon=     1 RMS=1.23D-11 Max=5.90D-11 NDo=     1
 LinEq1:  Iter=  2 NonCon=     1 RMS=1.89D-12 Max=8.98D-12 NDo=     1
 LinEq1:  Iter=  3 NonCon=     0 RMS=5.28D-13 Max=4.71D-12 NDo=     1
 Linear equations converged to 1.000D-12 1.000D-11 after     3 iterations.
 Angle between quadratic step and gradient=  90.00 degrees.
     ILin= 1 X=0.000D+00 Y=-7.576040569229D+01 DE= 0.00D+00 F= -1.43D-18
     ILin= 2 X=1.000D+00 Y=-7.576040569229D+01 DE=-1.42D-14
 Iteration   7 EE= -75.7604056922914     Delta-E=       -0.000000000000 Grad=8.445D-11 Max rot=    0.0000 deg.
 Rotation gradient small -- convergence achieved.
 SCF Done:  E(UHF) =  -75.7604056923     a.u. after    7 cycles
            Convg  =    0.8445D-10                    35 Fock formations.
              S**2 =  2.0064                  -V/T =  1.9961
 <Sx>= 0.0000 <Sy>= 0.0000 <Sz>= 1.0000 <S**2>= 2.0064 S= 1.0021
 <L.S>=  0.00000000000    
 Annihilation of the first spin contaminant:
 S**2 before annihilation     2.0064,   after     2.0000
 Leave Link  508 at Thu Aug  8 09:09:10 2019, MaxMem=   104857600 cpu:               0.9 elap:               0.9
 (Enter /usr/local/gaussian/2016-A.03/g16/l801.exe)
 Range of M.O.s used for correlation:     1    19
 NBasis=    19 NAE=     6 NBE=     4 NFC=     0 NFV=     0
 NROrb=     19 NOA=     6 NOB=     4 NVA=    13 NVB=    15
 Leave Link  801 at Thu Aug  8 09:09:10 2019, MaxMem=   104857600 cpu:               0.0 elap:               0.0
 (Enter /usr/local/gaussian/2016-A.03/g16/l914.exe)
 UHF ground state
 Ignoring spin specification with unrestricted ground state.
 Keep R1, R2, and R3 ints in memory in canonical form, NReq=881211.
 FoFCou: FMM=F IPFlag=           0 FMFlag=           0 FMFlg1=           0
         NFxFlg=           0 DoJE=F BraDBF=F KetDBF=F FulRan=T
         wScrn=  0.000000 ICntrl=       600 IOpCl=  0 I1Cent=           0 NGrid=           0
         NMat0=    1 NMatS0=    190 NMatT0=    0 NMatD0=    1 NMtDS0=    0 NMtDT0=    0
 Symmetry not used in FoFCou.
 Two-electron integral symmetry not used.
 MDV=   104857600 DFT=F DoStab=F Mixed=F DoRPA=F DoScal=F NonHer=F
 Making orbital integer symmetry assigments:
   138 initial guesses have been made.
 Convergence on wavefunction:    0.000000000100000
 Davidson Disk Diagonalization:  ConvIn= 1.00D-10 SkipCon=T Conv= 1.00D-10.
 Max sub-space:   276 roots to seek:   138 dimension of matrix:          138
 Iteration     1 Dimension   138 NMult     0 NNew    138
 CISAX will form   138 AO SS matrices at one time.
 NMat=   138 NSing=   138 JSym2X= 0.
 New state      5 was old state      6
 New state      6 was old state      8
 New state      7 was old state     11
 New state      8 was old state      5
 New state      9 was old state     10
 New state     10 was old state     12
 New state     11 was old state     13
 New state     12 was old state      7
 New state     13 was old state      9
 New state     17 was old state     18
 New state     18 was old state     17
 New state     20 was old state     22
 New state     22 was old state     25
 New state     23 was old state     20
 New state     24 was old state     32
 New state     25 was old state     27
 New state     26 was old state     31
 New state     27 was old state     28
 New state     28 was old state     23
 New state     29 was old state     26
 New state     30 was old state     29
 New state     31 was old state     30
 New state     32 was old state     35
 New state     33 was old state     37
 New state     34 was old state     33
 New state     35 was old state     39
 New state     37 was old state     40
 New state     38 was old state     46
 New state     39 was old state     34
 New state     40 was old state     38
 New state     41 was old state     47
 New state     42 was old state     43
 New state     43 was old state     41
 New state     44 was old state     48
 New state     45 was old state     49
 New state     46 was old state     51
 New state     47 was old state     50
 New state     48 was old state     42
 New state     49 was old state     53
 New state     50 was old state     44
 New state     51 was old state     45
 New state     53 was old state     24
 New state     54 was old state     55
 New state     55 was old state     54
 New state     57 was old state     59
 New state     58 was old state     57
 New state     59 was old state     58
 New state     60 was old state     69
 New state     61 was old state     64
 New state     62 was old state     60
 New state     63 was old state     66
 New state     64 was old state     71
 New state     65 was old state     70
 New state     66 was old state     61
 New state     68 was old state     63
 New state     69 was old state     73
 New state     70 was old state     76
 New state     71 was old state     74
 New state     72 was old state     75
 New state     73 was old state     77
 New state     74 was old state     62
 New state     75 was old state     72
 New state     76 was old state     78
 New state     77 was old state     68
 New state     78 was old state     79
 New state     79 was old state     80
 New state     80 was old state     65
 New state     81 was old state     82
 New state     82 was old state     81
 New state     83 was old state     84
 New state     84 was old state     83
 New state     88 was old state     89
 New state     89 was old state     90
 New state     90 was old state     88
 New state     95 was old state     96
 New state     96 was old state     97
 New state     97 was old state     95
 New state    100 was old state    101
 New state    101 was old state    102
 New state    102 was old state    100
 New state    105 was old state    107
 New state    106 was old state    105
 New state    107 was old state    108
 New state    108 was old state    106
 New state    112 was old state    113
 New state    113 was old state    112
 New state    115 was old state    117
 New state    117 was old state    115
 New state    118 was old state    119
 New state    119 was old state    118
 New state    120 was old state    123
 New state    121 was old state    120
 New state    123 was old state    124
 New state    124 was old state    121
 New state    125 was old state    126
 New state    126 was old state    125
 New state    127 was old state    129
 New state    128 was old state    127
 New state    129 was old state    131
 New state    131 was old state    128
 New state    133 was old state    134
 New state    134 was old state    133
 Excitation Energies [eV] at current iteration:
 Root      1 :     2.155183853880288
 Root      2 :     2.624280601617274
 Root      3 :     6.181243536823391
 Root      4 :    14.442628590338225
 Root      5 :    14.541305258786490
 Root      6 :    15.092987981838029
 Root      7 :    16.511819294165495
 Root      8 :    16.575685580676815
 Root      9 :    17.143246255410293
 Root     10 :    20.266527134865147
 Root     11 :    20.372973644109411
 Root     12 :    20.426304479920745
 Root     13 :    21.924773833045165
 Root     14 :    22.354025636063934
 Root     15 :    23.055825773151195
 Root     16 :    28.397587124068483
 Root     17 :    29.206060997770070
 Root     18 :    30.146323221285865
 Root     19 :    31.547388909580480
 Root     20 :    31.723064348895619
 Root     21 :    31.815256829493126
 Root     22 :    32.669515648633244
 Root     23 :    32.705874809078374
 Root     24 :    33.237656885501934
 Root     25 :    33.434427381578054
 Root     26 :    34.319763036327664
 Root     27 :    34.718306854477724
 Root     28 :    34.735502641898528
 Root     29 :    34.788374691105297
 Root     30 :    35.050082817735237
 Root     31 :    36.015948062378762
 Root     32 :    36.058734663888316
 Root     33 :    36.548439202794455
 Root     34 :    36.678358847532110
 Root     35 :    36.745868394671227
 Root     36 :    37.130300085560876
 Root     37 :    37.402027870557021
 Root     38 :    37.871506464362596
 Root     39 :    38.160004134590650
 Root     40 :    38.331645286600370
 Root     41 :    39.594644865124550
 Root     42 :    39.699086498198717
 Root     43 :    40.428722931001580
 Root     44 :    40.627604588953972
 Root     45 :    42.380385184750452
 Root     46 :    42.748804416863805
 Root     47 :    43.531404622132072
 Root     48 :    44.442322520124534
 Root     49 :    44.652686473938459
 Root     50 :    45.238840413493101
 Root     51 :    45.337194632422616
 Root     52 :    46.411332082557450
 Root     53 :    49.577166780662495
 Root     54 :    50.367414396858123
 Root     55 :    50.502337010499204
 Root     56 :    52.313795016161087
 Root     57 :    52.758471281721263
 Root     58 :    53.885647505028082
 Root     59 :    53.910062493227890
 Root     60 :    54.272270750296833
 Root     61 :    54.557711084898081
 Root     62 :    54.814922423195341
 Root     63 :    54.838835776072109
 Root     64 :    55.167343467111863
 Root     65 :    55.395728105485119
 Root     66 :    55.696695660600263
 Root     67 :    55.746924690598881
 Root     68 :    56.649879589685092
 Root     69 :    56.914071916245845
 Root     70 :    57.653991390408514
 Root     71 :    57.744546057708007
 Root     72 :    57.945954339323613
 Root     73 :    58.535768457208434
 Root     74 :    59.908373295337356
 Root     75 :    60.012822351836199
 Root     76 :    60.066849857672977
 Root     77 :    60.688129689593964
 Root     78 :    60.912008158167836
 Root     79 :    61.464429439540005
 Root     80 :    63.178965896640236
 Root     81 :    65.403278990088069
 Root     82 :    69.395808519763818
 Root     83 :    70.856591485104531
 Root     84 :    72.001186739882044
 Root     85 :    72.306165744913358
 Root     86 :    72.360666107201723
 Root     87 :    72.915644221094453
 Root     88 :    72.976750980644312
 Root     89 :    73.938947601510876
 Root     90 :    75.594822807701760
 Root     91 :    76.927849050433309
 Root     92 :    77.590623659965047
 Root     93 :    77.837792190549820
 Root     94 :    78.555569776306953
 Root     95 :    80.485294548691215
 Root     96 :    81.346708534603081
 Root     97 :    82.201921739929489
 Root     98 :    84.489603407155656
 Root     99 :    89.182116749486212
 Root    100 :    92.803124665254231
 Root    101 :    96.850009124616690
 Root    102 :    97.201485906615048
 Root    103 :   101.866135935159448
 Root    104 :   105.313324022424794
 Root    105 :   106.320821326669005
 Root    106 :   107.599973126566084
 Root    107 :   109.145932685775449
 Root    108 :   110.468750338496847
 Root    109 :   124.448813614105717
 Root    110 :   129.434366699349624
 Root    111 :   535.168654093532609
 Root    112 :   552.956756987742551
 Root    113 :   554.847034307491640
 Root    114 :   555.366307879269584
 Root    115 :   567.306950032457735
 Root    116 :   567.586205450510420
 Root    117 :   569.479081534685747
 Root    118 :   572.133768292314812
 Root    119 :   575.692687389614889
 Root    120 :   575.986806241117620
 Root    121 :   576.666898722740598
 Root    122 :   577.093284994013516
 Root    123 :   577.681020871942906
 Root    124 :   578.309779186993751
 Root    125 :   583.416695761420669
 Root    126 :   584.265268367989165
 Root    127 :   594.728606153759642
 Root    128 :   595.087815244257399
 Root    129 :   595.487890065581837
 Root    130 :   595.496221902846059
 Root    131 :   595.863605328923882
 Root    132 :   596.819098015174973
 Root    133 :   612.070636398064153
 Root    134 :   612.692388723966928
 Root    135 :   620.173836830775258
 Root    136 :   620.814411829876462
 Root    137 :   636.891118523120213
 Root    138 :   644.056895338882441
 Convergence achieved for final wavefunctions.
 ***********************************************************************
 Excited states from <AA,BB:AA,BB> singles matrix:
 ***********************************************************************
 
 ExtSpn:  IState=     1 X2= 1.000 Y2= 0.000 X2-Y2-1=-4.44D-16
          S2Grnd=  2.006 Ra=  0.004 Rb=  0.005 T= -0.008 S2Ext=  0.002 S2=  2.008
 ExtSpn:  IState=     2 X2= 1.000 Y2= 0.000 X2-Y2-1= 4.44D-16
          S2Grnd=  2.006 Ra=  0.001 Rb=  0.003 T= -0.000 S2Ext=  0.004 S2=  2.010
 ExtSpn:  IState=     3 X2= 1.000 Y2= 0.000 X2-Y2-1= 1.55D-15
          S2Grnd=  2.006 Ra=  0.000 Rb=  0.005 T=  0.000 S2Ext=  0.006 S2=  2.012
 ExtSpn:  IState=     4 X2= 1.000 Y2= 0.000 X2-Y2-1= 1.33D-15
          S2Grnd=  2.006 Ra=  0.107 Rb=  0.022 T=  0.095 S2Ext=  0.225 S2=  2.231
 ExtSpn:  IState=     5 X2= 1.000 Y2= 0.000 X2-Y2-1= 1.33D-15
          S2Grnd=  2.006 Ra=  0.736 Rb=  0.213 T=  0.789 S2Ext=  1.737 S2=  3.743
 ExtSpn:  IState=     6 X2= 1.000 Y2= 0.000 X2-Y2-1= 4.44D-16
          S2Grnd=  2.006 Ra= -0.001 Rb=  0.000 T=  0.000 S2Ext= -0.000 S2=  2.006
 ExtSpn:  IState=     7 X2= 1.000 Y2= 0.000 X2-Y2-1= 1.78D-15
          S2Grnd=  2.006 Ra=  0.548 Rb=  0.320 T=  0.823 S2Ext=  1.691 S2=  3.697
 ExtSpn:  IState=     8 X2= 1.000 Y2= 0.000 X2-Y2-1= 1.55D-15
          S2Grnd=  2.006 Ra=  0.221 Rb=  0.766 T= -0.810 S2Ext=  0.178 S2=  2.184
 ExtSpn:  IState=     9 X2= 1.000 Y2= 0.000 X2-Y2-1=-4.44D-16
          S2Grnd=  2.006 Ra=  0.038 Rb=  0.020 T=  0.047 S2Ext=  0.104 S2=  2.111
 ExtSpn:  IState=    10 X2= 1.000 Y2= 0.000 X2-Y2-1= 4.44D-16
          S2Grnd=  2.006 Ra=  0.007 Rb=  0.004 T=  0.001 S2Ext=  0.012 S2=  2.018
 ExtSpn:  IState=    11 X2= 1.000 Y2= 0.000 X2-Y2-1= 0.00D+00
          S2Grnd=  2.006 Ra=  0.269 Rb=  0.571 T= -0.775 S2Ext=  0.065 S2=  2.071
 ExtSpn:  IState=    12 X2= 1.000 Y2= 0.000 X2-Y2-1= 1.11D-15
          S2Grnd=  2.006 Ra=  0.005 Rb=  0.001 T=  0.000 S2Ext=  0.007 S2=  2.013
 ExtSpn:  IState=    13 X2= 1.000 Y2= 0.000 X2-Y2-1= 2.22D-16
          S2Grnd=  2.006 Ra=  0.064 Rb=  0.077 T= -0.121 S2Ext=  0.019 S2=  2.025
 ExtSpn:  IState=    14 X2= 1.000 Y2= 0.000 X2-Y2-1= 0.00D+00
          S2Grnd=  2.006 Ra=  0.015 Rb=  0.001 T=  0.002 S2Ext=  0.019 S2=  2.026
 ExtSpn:  IState=    15 X2= 1.000 Y2= 0.000 X2-Y2-1= 1.78D-15
          S2Grnd=  2.006 Ra=  0.020 Rb=  0.004 T=  0.012 S2Ext=  0.036 S2=  2.043
 ExtSpn:  IState=    16 X2= 1.000 Y2= 0.000 X2-Y2-1=-1.22D-15
          S2Grnd=  2.006 Ra=  0.021 Rb=  0.024 T=  0.016 S2Ext=  0.061 S2=  2.068
 ExtSpn:  IState=    17 X2= 1.000 Y2= 0.000 X2-Y2-1= 1.11D-15
          S2Grnd=  2.006 Ra=  0.204 Rb=  0.521 T=  0.649 S2Ext=  1.374 S2=  3.380
 ExtSpn:  IState=    18 X2= 1.000 Y2= 0.000 X2-Y2-1= 1.55D-15
          S2Grnd=  2.006 Ra=  0.043 Rb=  0.027 T=  0.060 S2Ext=  0.130 S2=  2.137
 ExtSpn:  IState=    19 X2= 1.000 Y2= 0.000 X2-Y2-1=-8.88D-16
          S2Grnd=  2.006 Ra=  0.708 Rb=  0.042 T=  0.343 S2Ext=  1.093 S2=  3.100
 ExtSpn:  IState=    20 X2= 1.000 Y2= 0.000 X2-Y2-1= 0.00D+00
          S2Grnd=  2.006 Ra=  0.321 Rb=  0.031 T=  0.154 S2Ext=  0.507 S2=  2.513
 ExtSpn:  IState=    21 X2= 1.000 Y2= 0.000 X2-Y2-1=-1.11D-16
          S2Grnd=  2.006 Ra=  0.295 Rb=  0.689 T=  0.861 S2Ext=  1.845 S2=  3.852
 ExtSpn:  IState=    22 X2= 1.000 Y2= 0.000 X2-Y2-1= 1.55D-15
          S2Grnd=  2.006 Ra=  0.257 Rb=  0.005 T= -0.075 S2Ext=  0.188 S2=  2.195
 ExtSpn:  IState=    23 X2= 1.000 Y2= 0.000 X2-Y2-1=-2.22D-16
          S2Grnd=  2.006 Ra=  0.155 Rb=  0.230 T=  0.094 S2Ext=  0.480 S2=  2.486
 ExtSpn:  IState=    24 X2= 1.000 Y2= 0.000 X2-Y2-1=-3.33D-16
          S2Grnd=  2.006 Ra=  0.372 Rb=  0.454 T=  0.687 S2Ext=  1.512 S2=  3.518
 ExtSpn:  IState=    25 X2= 1.000 Y2= 0.000 X2-Y2-1= 6.66D-16
          S2Grnd=  2.006 Ra=  0.185 Rb=  0.787 T=  0.718 S2Ext=  1.689 S2=  3.696
 ExtSpn:  IState=    26 X2= 1.000 Y2= 0.000 X2-Y2-1=-1.11D-15
          S2Grnd=  2.006 Ra=  0.035 Rb=  0.001 T=  0.008 S2Ext=  0.043 S2=  2.050
 ExtSpn:  IState=    27 X2= 1.000 Y2= 0.000 X2-Y2-1= 1.33D-15
          S2Grnd=  2.006 Ra=  0.948 Rb=  0.013 T=  0.211 S2Ext=  1.172 S2=  3.178
 ExtSpn:  IState=    28 X2= 1.000 Y2= 0.000 X2-Y2-1= 2.44D-15
          S2Grnd=  2.006 Ra=  0.021 Rb=  0.934 T= -0.272 S2Ext=  0.683 S2=  2.689
 ExtSpn:  IState=    29 X2= 1.000 Y2= 0.000 X2-Y2-1= 8.88D-16
          S2Grnd=  2.006 Ra=  0.360 Rb=  0.632 T=  0.125 S2Ext=  1.117 S2=  3.123
 ExtSpn:  IState=    30 X2= 1.000 Y2= 0.000 X2-Y2-1= 4.44D-16
          S2Grnd=  2.006 Ra=  0.834 Rb=  0.161 T= -0.046 S2Ext=  0.949 S2=  2.955
 ExtSpn:  IState=    31 X2= 1.000 Y2= 0.000 X2-Y2-1= 1.78D-15
          S2Grnd=  2.006 Ra=  0.383 Rb=  0.613 T= -0.723 S2Ext=  0.274 S2=  2.280
 ExtSpn:  IState=    32 X2= 1.000 Y2= 0.000 X2-Y2-1= 0.00D+00
          S2Grnd=  2.006 Ra=  0.446 Rb=  0.539 T=  0.950 S2Ext=  1.935 S2=  3.942
 ExtSpn:  IState=    33 X2= 1.000 Y2= 0.000 X2-Y2-1=-1.33D-15
          S2Grnd=  2.006 Ra=  0.002 Rb=  0.016 T=  0.001 S2Ext=  0.018 S2=  2.025
 ExtSpn:  IState=    34 X2= 1.000 Y2= 0.000 X2-Y2-1=-6.66D-16
          S2Grnd=  2.006 Ra=  0.483 Rb=  0.509 T= -0.988 S2Ext=  0.005 S2=  2.011
 ExtSpn:  IState=    35 X2= 1.000 Y2= 0.000 X2-Y2-1= 6.66D-16
          S2Grnd=  2.006 Ra=  0.781 Rb=  0.214 T= -0.678 S2Ext=  0.317 S2=  2.323
 ExtSpn:  IState=    36 X2= 1.000 Y2= 0.000 X2-Y2-1= 4.44D-16
          S2Grnd=  2.006 Ra=  0.456 Rb=  0.389 T= -0.822 S2Ext=  0.023 S2=  2.029
 ExtSpn:  IState=    37 X2= 1.000 Y2= 0.000 X2-Y2-1=-2.22D-16
          S2Grnd=  2.006 Ra=  0.668 Rb=  0.323 T=  0.700 S2Ext=  1.690 S2=  3.696
 ExtSpn:  IState=    38 X2= 1.000 Y2= 0.000 X2-Y2-1= 0.00D+00
          S2Grnd=  2.006 Ra=  0.517 Rb=  0.415 T= -0.899 S2Ext=  0.033 S2=  2.040
 ExtSpn:  IState=    39 X2= 1.000 Y2= 0.000 X2-Y2-1= 4.44D-16
          S2Grnd=  2.006 Ra=  0.014 Rb=  0.920 T= -0.231 S2Ext=  0.703 S2=  2.710
 ExtSpn:  IState=    40 X2= 1.000 Y2= 0.000 X2-Y2-1= 6.66D-16
          S2Grnd=  2.006 Ra=  0.100 Rb=  0.897 T=  0.489 S2Ext=  1.486 S2=  3.492
 ExtSpn:  IState=    41 X2= 1.000 Y2= 0.000 X2-Y2-1= 2.22D-15
          S2Grnd=  2.006 Ra=  0.001 Rb=  0.060 T=  0.012 S2Ext=  0.072 S2=  2.079
 ExtSpn:  IState=    42 X2= 1.000 Y2= 0.000 X2-Y2-1= 6.66D-16
          S2Grnd=  2.006 Ra=  0.912 Rb=  0.078 T= -0.498 S2Ext=  0.493 S2=  2.499
 ExtSpn:  IState=    43 X2= 1.000 Y2= 0.000 X2-Y2-1= 1.11D-15
          S2Grnd=  2.006 Ra=  0.430 Rb=  0.558 T= -0.970 S2Ext=  0.018 S2=  2.025
 ExtSpn:  IState=    44 X2= 1.000 Y2= 0.000 X2-Y2-1= 0.00D+00
          S2Grnd=  2.006 Ra=  0.533 Rb=  0.450 T=  0.973 S2Ext=  1.956 S2=  3.963
 ExtSpn:  IState=    45 X2= 1.000 Y2= 0.000 X2-Y2-1= 0.00D+00
          S2Grnd=  2.006 Ra=  0.409 Rb=  0.584 T=  0.973 S2Ext=  1.966 S2=  3.972
 ExtSpn:  IState=    46 X2= 1.000 Y2= 0.000 X2-Y2-1= 2.89D-15
          S2Grnd=  2.006 Ra=  0.021 Rb=  0.006 T=  0.011 S2Ext=  0.038 S2=  2.044
 ExtSpn:  IState=    47 X2= 1.000 Y2= 0.000 X2-Y2-1= 6.66D-16
          S2Grnd=  2.006 Ra=  0.590 Rb=  0.406 T= -0.976 S2Ext=  0.020 S2=  2.026
 ExtSpn:  IState=    48 X2= 1.000 Y2= 0.000 X2-Y2-1=-1.11D-16
          S2Grnd=  2.006 Ra=  0.011 Rb=  0.001 T=  0.002 S2Ext=  0.013 S2=  2.020
 ExtSpn:  IState=    49 X2= 1.000 Y2= 0.000 X2-Y2-1= 2.22D-16
          S2Grnd=  2.006 Ra=  0.642 Rb=  0.355 T=  0.947 S2Ext=  1.944 S2=  3.950
 ExtSpn:  IState=    50 X2= 1.000 Y2= 0.000 X2-Y2-1=-2.11D-15
          S2Grnd=  2.006 Ra=  0.013 Rb=  0.013 T=  0.017 S2Ext=  0.042 S2=  2.048
 ExtSpn:  IState=    51 X2= 1.000 Y2= 0.000 X2-Y2-1=-3.33D-16
          S2Grnd=  2.006 Ra=  0.010 Rb=  0.005 T=  0.008 S2Ext=  0.023 S2=  2.030
 ExtSpn:  IState=    52 X2= 1.000 Y2= 0.000 X2-Y2-1= 6.66D-16
          S2Grnd=  2.006 Ra=  0.351 Rb=  0.630 T= -0.932 S2Ext=  0.050 S2=  2.056
 ExtSpn:  IState=    53 X2= 1.000 Y2= 0.000 X2-Y2-1=-2.22D-16
          S2Grnd=  2.006 Ra=  0.416 Rb=  0.486 T= -0.871 S2Ext=  0.031 S2=  2.037
 ExtSpn:  IState=    54 X2= 1.000 Y2= 0.000 X2-Y2-1=-3.22D-15
          S2Grnd=  2.006 Ra=  0.038 Rb=  0.954 T=  0.362 S2Ext=  1.354 S2=  3.361
 ExtSpn:  IState=    55 X2= 1.000 Y2= 0.000 X2-Y2-1=-7.77D-16
          S2Grnd=  2.006 Ra=  0.047 Rb=  0.935 T=  0.355 S2Ext=  1.336 S2=  3.343
 ExtSpn:  IState=    56 X2= 1.000 Y2= 0.000 X2-Y2-1= 8.88D-16
          S2Grnd=  2.006 Ra=  0.312 Rb=  0.662 T=  0.911 S2Ext=  1.885 S2=  3.891
 ExtSpn:  IState=    57 X2= 1.000 Y2= 0.000 X2-Y2-1=-4.44D-16
          S2Grnd=  2.006 Ra=  0.299 Rb=  0.653 T=  0.789 S2Ext=  1.741 S2=  3.747
 ExtSpn:  IState=    58 X2= 1.000 Y2= 0.000 X2-Y2-1= 0.00D+00
          S2Grnd=  2.006 Ra=  0.690 Rb=  0.294 T= -0.729 S2Ext=  0.254 S2=  2.261
 ExtSpn:  IState=    59 X2= 1.000 Y2= 0.000 X2-Y2-1= 2.22D-16
          S2Grnd=  2.006 Ra=  0.364 Rb=  0.619 T=  0.486 S2Ext=  1.469 S2=  3.475
 ExtSpn:  IState=    60 X2= 1.000 Y2= 0.000 X2-Y2-1= 0.00D+00
          S2Grnd=  2.006 Ra=  0.518 Rb=  0.376 T=  0.722 S2Ext=  1.616 S2=  3.622
 ExtSpn:  IState=    61 X2= 1.000 Y2= 0.000 X2-Y2-1=-1.89D-15
          S2Grnd=  2.006 Ra=  0.729 Rb=  0.261 T=  0.872 S2Ext=  1.862 S2=  3.868
 ExtSpn:  IState=    62 X2= 1.000 Y2= 0.000 X2-Y2-1= 1.33D-15
          S2Grnd=  2.006 Ra=  0.731 Rb=  0.202 T= -0.131 S2Ext=  0.802 S2=  2.809
 ExtSpn:  IState=    63 X2= 1.000 Y2= 0.000 X2-Y2-1=-4.44D-16
          S2Grnd=  2.006 Ra=  0.337 Rb=  0.131 T= -0.194 S2Ext=  0.274 S2=  2.280
 ExtSpn:  IState=    64 X2= 1.000 Y2= 0.000 X2-Y2-1=-1.78D-15
          S2Grnd=  2.006 Ra=  0.269 Rb=  0.062 T= -0.192 S2Ext=  0.139 S2=  2.146
 ExtSpn:  IState=    65 X2= 1.000 Y2= 0.000 X2-Y2-1=-6.66D-16
          S2Grnd=  2.006 Ra=  0.057 Rb=  0.179 T=  0.097 S2Ext=  0.333 S2=  2.339
 ExtSpn:  IState=    66 X2= 1.000 Y2= 0.000 X2-Y2-1= 8.88D-16
          S2Grnd=  2.006 Ra=  0.264 Rb=  0.732 T= -0.874 S2Ext=  0.122 S2=  2.128
 ExtSpn:  IState=    67 X2= 1.000 Y2= 0.000 X2-Y2-1=-5.55D-16
          S2Grnd=  2.006 Ra=  0.632 Rb=  0.049 T= -0.226 S2Ext=  0.455 S2=  2.462
 ExtSpn:  IState=    68 X2= 1.000 Y2= 0.000 X2-Y2-1= 1.55D-15
          S2Grnd=  2.006 Ra=  0.038 Rb=  0.958 T=  0.334 S2Ext=  1.330 S2=  3.336
 ExtSpn:  IState=    69 X2= 1.000 Y2= 0.000 X2-Y2-1=-4.44D-16
          S2Grnd=  2.006 Ra=  0.787 Rb=  0.100 T=  0.454 S2Ext=  1.341 S2=  3.348
 ExtSpn:  IState=    70 X2= 1.000 Y2= 0.000 X2-Y2-1= 2.22D-16
          S2Grnd=  2.006 Ra=  0.540 Rb=  0.419 T=  0.891 S2Ext=  1.849 S2=  3.856
 ExtSpn:  IState=    71 X2= 1.000 Y2= 0.000 X2-Y2-1= 2.66D-15
          S2Grnd=  2.006 Ra=  0.169 Rb=  0.825 T= -0.536 S2Ext=  0.459 S2=  2.465
 ExtSpn:  IState=    72 X2= 1.000 Y2= 0.000 X2-Y2-1=-7.77D-16
          S2Grnd=  2.006 Ra=  0.841 Rb=  0.144 T= -0.567 S2Ext=  0.419 S2=  2.425
 ExtSpn:  IState=    73 X2= 1.000 Y2= 0.000 X2-Y2-1= 2.00D-15
          S2Grnd=  2.006 Ra=  0.952 Rb=  0.047 T=  0.385 S2Ext=  1.383 S2=  3.390
 ExtSpn:  IState=    74 X2= 1.000 Y2= 0.000 X2-Y2-1= 8.88D-16
          S2Grnd=  2.006 Ra=  0.059 Rb=  0.036 T= -0.053 S2Ext=  0.042 S2=  2.049
 ExtSpn:  IState=    75 X2= 1.000 Y2= 0.000 X2-Y2-1= 8.88D-16
          S2Grnd=  2.006 Ra=  0.513 Rb=  0.422 T= -0.796 S2Ext=  0.140 S2=  2.146
 ExtSpn:  IState=    76 X2= 1.000 Y2= 0.000 X2-Y2-1= 4.44D-16
          S2Grnd=  2.006 Ra=  0.041 Rb=  0.957 T= -0.385 S2Ext=  0.614 S2=  2.621
 ExtSpn:  IState=    77 X2= 1.000 Y2= 0.000 X2-Y2-1= 4.44D-16
          S2Grnd=  2.006 Ra=  0.329 Rb=  0.415 T= -0.432 S2Ext=  0.311 S2=  2.317
 ExtSpn:  IState=    78 X2= 1.000 Y2= 0.000 X2-Y2-1= 2.22D-16
          S2Grnd=  2.006 Ra=  0.240 Rb=  0.700 T=  0.401 S2Ext=  1.340 S2=  3.347
 ExtSpn:  IState=    79 X2= 1.000 Y2= 0.000 X2-Y2-1= 1.55D-15
          S2Grnd=  2.006 Ra=  0.908 Rb=  0.069 T= -0.398 S2Ext=  0.580 S2=  2.586
 ExtSpn:  IState=    80 X2= 1.000 Y2= 0.000 X2-Y2-1= 4.44D-16
          S2Grnd=  2.006 Ra=  0.389 Rb=  0.506 T= -0.882 S2Ext=  0.013 S2=  2.020
 ExtSpn:  IState=    81 X2= 1.000 Y2= 0.000 X2-Y2-1= 4.44D-16
          S2Grnd=  2.006 Ra=  0.827 Rb=  0.158 T= -0.696 S2Ext=  0.289 S2=  2.295
 ExtSpn:  IState=    82 X2= 1.000 Y2= 0.000 X2-Y2-1= 1.78D-15
          S2Grnd=  2.006 Ra=  0.016 Rb=  0.003 T=  0.004 S2Ext=  0.023 S2=  2.030
 ExtSpn:  IState=    83 X2= 1.000 Y2= 0.000 X2-Y2-1= 2.00D-15
          S2Grnd=  2.006 Ra=  0.566 Rb=  0.429 T=  0.973 S2Ext=  1.967 S2=  3.974
 ExtSpn:  IState=    84 X2= 1.000 Y2= 0.000 X2-Y2-1= 1.11D-15
          S2Grnd=  2.006 Ra=  0.400 Rb=  0.594 T= -0.970 S2Ext=  0.025 S2=  2.031
 ExtSpn:  IState=    85 X2= 1.000 Y2= 0.000 X2-Y2-1= 1.78D-15
          S2Grnd=  2.006 Ra=  0.036 Rb=  0.032 T= -0.051 S2Ext=  0.016 S2=  2.023
 ExtSpn:  IState=    86 X2= 1.000 Y2= 0.000 X2-Y2-1= 0.00D+00
          S2Grnd=  2.006 Ra=  0.132 Rb=  0.863 T=  0.609 S2Ext=  1.604 S2=  3.610
 ExtSpn:  IState=    87 X2= 1.000 Y2= 0.000 X2-Y2-1= 6.66D-16
          S2Grnd=  2.006 Ra=  0.179 Rb=  0.813 T=  0.764 S2Ext=  1.757 S2=  3.763
 ExtSpn:  IState=    88 X2= 1.000 Y2= 0.000 X2-Y2-1= 8.88D-16
          S2Grnd=  2.006 Ra=  0.636 Rb=  0.356 T=  0.937 S2Ext=  1.929 S2=  3.935
 ExtSpn:  IState=    89 X2= 1.000 Y2= 0.000 X2-Y2-1= 8.88D-16
          S2Grnd=  2.006 Ra=  0.185 Rb=  0.806 T=  0.774 S2Ext=  1.765 S2=  3.772
 ExtSpn:  IState=    90 X2= 1.000 Y2= 0.000 X2-Y2-1= 6.66D-16
          S2Grnd=  2.006 Ra=  0.335 Rb=  0.657 T= -0.935 S2Ext=  0.058 S2=  2.064
 ExtSpn:  IState=    91 X2= 1.000 Y2= 0.000 X2-Y2-1= 4.44D-16
          S2Grnd=  2.006 Ra=  0.811 Rb=  0.182 T= -0.769 S2Ext=  0.224 S2=  2.231
 ExtSpn:  IState=    92 X2= 1.000 Y2= 0.000 X2-Y2-1=-5.55D-16
          S2Grnd=  2.006 Ra=  0.889 Rb=  0.106 T= -0.611 S2Ext=  0.385 S2=  2.391
 ExtSpn:  IState=    93 X2= 1.000 Y2= 0.000 X2-Y2-1=-8.88D-16
          S2Grnd=  2.006 Ra=  0.799 Rb=  0.189 T= -0.778 S2Ext=  0.210 S2=  2.216
 ExtSpn:  IState=    94 X2= 1.000 Y2= 0.000 X2-Y2-1= 1.55D-15
          S2Grnd=  2.006 Ra=  0.362 Rb=  0.630 T=  0.943 S2Ext=  1.936 S2=  3.942
 ExtSpn:  IState=    95 X2= 1.000 Y2= 0.000 X2-Y2-1=-3.33D-16
          S2Grnd=  2.006 Ra=  0.005 Rb=  0.001 T=  0.004 S2Ext=  0.010 S2=  2.017
 ExtSpn:  IState=    96 X2= 1.000 Y2= 0.000 X2-Y2-1=-5.55D-16
          S2Grnd=  2.006 Ra=  0.418 Rb=  0.579 T=  0.985 S2Ext=  1.982 S2=  3.989
 ExtSpn:  IState=    97 X2= 1.000 Y2= 0.000 X2-Y2-1= 2.22D-15
          S2Grnd=  2.006 Ra=  0.643 Rb=  0.350 T= -0.946 S2Ext=  0.048 S2=  2.054
 ExtSpn:  IState=    98 X2= 1.000 Y2= 0.000 X2-Y2-1= 8.88D-16
          S2Grnd=  2.006 Ra=  0.580 Rb=  0.415 T= -0.982 S2Ext=  0.014 S2=  2.020
 ExtSpn:  IState=    99 X2= 1.000 Y2= 0.000 X2-Y2-1= 4.44D-16
          S2Grnd=  2.006 Ra=  0.088 Rb=  0.907 T=  0.560 S2Ext=  1.555 S2=  3.561
 ExtSpn:  IState=   100 X2= 1.000 Y2= 0.000 X2-Y2-1= 6.66D-16
          S2Grnd=  2.006 Ra=  0.907 Rb=  0.088 T= -0.562 S2Ext=  0.433 S2=  2.439
 ExtSpn:  IState=   101 X2= 1.000 Y2= 0.000 X2-Y2-1=-4.44D-16
          S2Grnd=  2.006 Ra=  0.056 Rb=  0.940 T=  0.458 S2Ext=  1.454 S2=  3.461
 ExtSpn:  IState=   102 X2= 1.000 Y2= 0.000 X2-Y2-1= 1.11D-15
          S2Grnd=  2.006 Ra=  0.026 Rb=  0.001 T=  0.003 S2Ext=  0.031 S2=  2.037
 ExtSpn:  IState=   103 X2= 1.000 Y2= 0.000 X2-Y2-1= 1.11D-15
          S2Grnd=  2.006 Ra=  0.940 Rb=  0.056 T= -0.459 S2Ext=  0.537 S2=  2.544
 ExtSpn:  IState=   104 X2= 1.000 Y2= 0.000 X2-Y2-1= 8.88D-16
          S2Grnd=  2.006 Ra=  0.328 Rb=  0.660 T=  0.931 S2Ext=  1.919 S2=  3.926
 ExtSpn:  IState=   105 X2= 1.000 Y2= 0.000 X2-Y2-1= 4.44D-16
          S2Grnd=  2.006 Ra=  0.000 Rb=  0.000 T=  0.000 S2Ext=  0.001 S2=  2.007
 ExtSpn:  IState=   106 X2= 1.000 Y2= 0.000 X2-Y2-1= 1.33D-15
          S2Grnd=  2.006 Ra=  0.644 Rb=  0.339 T= -0.935 S2Ext=  0.049 S2=  2.055
 ExtSpn:  IState=   107 X2= 1.000 Y2= 0.000 X2-Y2-1=-1.89D-15
          S2Grnd=  2.006 Ra=  0.506 Rb=  0.493 T=  0.999 S2Ext=  1.998 S2=  4.004
 ExtSpn:  IState=   108 X2= 1.000 Y2= 0.000 X2-Y2-1= 1.11D-15
          S2Grnd=  2.006 Ra=  0.493 Rb=  0.506 T= -0.999 S2Ext= -0.000 S2=  2.006
 ExtSpn:  IState=   109 X2= 1.000 Y2= 0.000 X2-Y2-1= 2.66D-15
          S2Grnd=  2.006 Ra=  0.128 Rb=  0.867 T=  0.662 S2Ext=  1.657 S2=  3.663
 ExtSpn:  IState=   110 X2= 1.000 Y2= 0.000 X2-Y2-1= 1.11D-15
          S2Grnd=  2.006 Ra=  0.869 Rb=  0.127 T= -0.662 S2Ext=  0.334 S2=  2.340
 ExtSpn:  IState=   111 X2= 1.000 Y2= 0.000 X2-Y2-1= 1.33D-15
          S2Grnd=  2.006 Ra=  0.001 Rb=  0.029 T=  0.013 S2Ext=  0.044 S2=  2.050
 ExtSpn:  IState=   112 X2= 1.000 Y2= 0.000 X2-Y2-1=-8.88D-16
          S2Grnd=  2.006 Ra=  0.859 Rb=  0.141 T=  0.692 S2Ext=  1.691 S2=  3.698
 ExtSpn:  IState=   113 X2= 1.000 Y2= 0.000 X2-Y2-1=-3.33D-16
          S2Grnd=  2.006 Ra=  0.003 Rb=  0.086 T=  0.031 S2Ext=  0.120 S2=  2.126
 ExtSpn:  IState=   114 X2= 1.000 Y2= 0.000 X2-Y2-1= 8.88D-16
          S2Grnd=  2.006 Ra=  0.141 Rb=  0.859 T= -0.691 S2Ext=  0.308 S2=  2.314
 ExtSpn:  IState=   115 X2= 1.000 Y2= 0.000 X2-Y2-1= 4.44D-16
          S2Grnd=  2.006 Ra=  0.517 Rb=  0.450 T=  0.957 S2Ext=  1.925 S2=  3.931
 ExtSpn:  IState=   116 X2= 1.000 Y2= 0.000 X2-Y2-1=-9.99D-16
          S2Grnd=  2.006 Ra=  0.955 Rb=  0.040 T=  0.391 S2Ext=  1.385 S2=  3.392
 ExtSpn:  IState=   117 X2= 1.000 Y2= 0.000 X2-Y2-1=-2.22D-16
          S2Grnd=  2.006 Ra=  0.480 Rb=  0.504 T= -0.969 S2Ext=  0.015 S2=  2.021
 ExtSpn:  IState=   118 X2= 1.000 Y2= 0.000 X2-Y2-1=-3.33D-16
          S2Grnd=  2.006 Ra=  0.044 Rb=  0.931 T= -0.403 S2Ext=  0.571 S2=  2.578
 ExtSpn:  IState=   119 X2= 1.000 Y2= 0.000 X2-Y2-1=-6.66D-16
          S2Grnd=  2.006 Ra=  0.002 Rb=  0.998 T=  0.003 S2Ext=  1.003 S2=  3.009
 ExtSpn:  IState=   120 X2= 1.000 Y2= 0.000 X2-Y2-1=-2.44D-15
          S2Grnd=  2.006 Ra=  0.276 Rb=  0.723 T=  0.894 S2Ext=  1.893 S2=  3.900
 ExtSpn:  IState=   121 X2= 1.000 Y2= 0.000 X2-Y2-1=-5.55D-16
          S2Grnd=  2.006 Ra=  0.993 Rb=  0.007 T= -0.010 S2Ext=  0.990 S2=  2.996
 ExtSpn:  IState=   122 X2= 1.000 Y2= 0.000 X2-Y2-1= 0.00D+00
          S2Grnd=  2.006 Ra=  0.864 Rb=  0.126 T=  0.650 S2Ext=  1.639 S2=  3.646
 ExtSpn:  IState=   123 X2= 1.000 Y2= 0.000 X2-Y2-1=-6.66D-16
          S2Grnd=  2.006 Ra=  0.729 Rb=  0.271 T= -0.887 S2Ext=  0.113 S2=  2.119
 ExtSpn:  IState=   124 X2= 1.000 Y2= 0.000 X2-Y2-1=-8.88D-16
          S2Grnd=  2.006 Ra=  0.134 Rb=  0.844 T= -0.668 S2Ext=  0.310 S2=  2.316
 ExtSpn:  IState=   125 X2= 1.000 Y2= 0.000 X2-Y2-1=-7.77D-16
          S2Grnd=  2.006 Ra=  0.862 Rb=  0.135 T=  0.678 S2Ext=  1.675 S2=  3.682
 ExtSpn:  IState=   126 X2= 1.000 Y2= 0.000 X2-Y2-1= 2.22D-16
          S2Grnd=  2.006 Ra=  0.135 Rb=  0.853 T= -0.678 S2Ext=  0.311 S2=  2.317
 ExtSpn:  IState=   127 X2= 1.000 Y2= 0.000 X2-Y2-1= 1.78D-15
          S2Grnd=  2.006 Ra=  1.000 Rb=  0.000 T=  0.020 S2Ext=  1.020 S2=  3.027
 ExtSpn:  IState=   128 X2= 1.000 Y2= 0.000 X2-Y2-1=-7.77D-16
          S2Grnd=  2.006 Ra=  0.001 Rb=  0.999 T=  0.057 S2Ext=  1.057 S2=  3.063
 ExtSpn:  IState=   129 X2= 1.000 Y2= 0.000 X2-Y2-1=-1.11D-16
          S2Grnd=  2.006 Ra=  1.000 Rb=  0.000 T=  0.017 S2Ext=  1.017 S2=  3.024
 ExtSpn:  IState=   130 X2= 1.000 Y2= 0.000 X2-Y2-1= 1.33D-15
          S2Grnd=  2.006 Ra=  0.999 Rb=  0.001 T= -0.057 S2Ext=  0.942 S2=  2.949
 ExtSpn:  IState=   131 X2= 1.000 Y2= 0.000 X2-Y2-1=-8.88D-16
          S2Grnd=  2.006 Ra=  0.000 Rb=  1.000 T= -0.020 S2Ext=  0.980 S2=  2.986
 ExtSpn:  IState=   132 X2= 1.000 Y2= 0.000 X2-Y2-1=-1.44D-15
          S2Grnd=  2.006 Ra=  0.000 Rb=  1.000 T= -0.017 S2Ext=  0.983 S2=  2.989
 ExtSpn:  IState=   133 X2= 1.000 Y2= 0.000 X2-Y2-1=-4.44D-16
          S2Grnd=  2.006 Ra=  0.998 Rb=  0.001 T=  0.058 S2Ext=  1.057 S2=  3.064
 ExtSpn:  IState=   134 X2= 1.000 Y2= 0.000 X2-Y2-1= 2.22D-16
          S2Grnd=  2.006 Ra=  0.001 Rb=  0.998 T= -0.058 S2Ext=  0.941 S2=  2.947
 ExtSpn:  IState=   135 X2= 1.000 Y2= 0.000 X2-Y2-1=-1.11D-16
          S2Grnd=  2.006 Ra=  0.000 Rb=  1.000 T=  0.044 S2Ext=  1.044 S2=  3.050
 ExtSpn:  IState=   136 X2= 1.000 Y2= 0.000 X2-Y2-1= 0.00D+00
          S2Grnd=  2.006 Ra=  1.000 Rb=  0.000 T= -0.044 S2Ext=  0.956 S2=  2.963
 ExtSpn:  IState=   137 X2= 1.000 Y2= 0.000 X2-Y2-1=-3.33D-16
          S2Grnd=  2.006 Ra=  0.488 Rb=  0.511 T=  0.998 S2Ext=  1.997 S2=  4.004
 ExtSpn:  IState=   138 X2= 1.000 Y2= 0.000 X2-Y2-1= 4.44D-16
          S2Grnd=  2.006 Ra=  0.511 Rb=  0.488 T= -0.999 S2Ext=  0.000 S2=  2.007
 1PDM for each excited state written to RWF  633
 Ground to excited state transition densities written to RWF  633
 Ground to excited state transition electric dipole moments (Au):
       state          X           Y           Z        Dip. S.      Osc.
         1        -1.0709      1.2477     -0.2845      2.7847      0.1470
         2         0.0053      0.0314      0.1179      0.0149      0.0010
         3         0.0000      0.0001      0.0004      0.0000      0.0000
         4         0.2434      0.1913     -0.0619      0.0997      0.0353
         5         0.0361     -0.0657      0.0159      0.0059      0.0021
         6        -0.0000     -0.0002     -0.0006      0.0000      0.0000
         7        -0.1407     -0.1689      0.0513      0.0510      0.0206
         8        -0.4981      0.5561     -0.1258      0.5732      0.2328
         9        -0.4913      0.5775     -0.1319      0.5922      0.2487
        10        -0.4281      0.5138     -0.1177      0.4611      0.2289
        11         0.3939      0.2924     -0.0957      0.2498      0.1247
        12         0.0048      0.0283      0.1062      0.0121      0.0061
        13         0.3129      0.2536     -0.0817      0.1689      0.0907
        14        -0.0314     -0.1861     -0.6979      0.5227      0.2862
        15        -0.5622     -0.4493      0.1451      0.5389      0.3044
        16         0.1311     -0.1508      0.0343      0.0411      0.0286
        17        -0.1638     -0.1306      0.0422      0.0457      0.0327
        18        -0.2489     -0.1978      0.0639      0.1052      0.0777
        19         0.0046      0.0271      0.1015      0.0111      0.0085
        20        -0.0110     -0.0083      0.0027      0.0002      0.0002
        21         0.0519     -0.0609      0.0139      0.0066      0.0051
        22        -0.0104     -0.0614     -0.2304      0.0570      0.0456
        23         0.1555      0.1251     -0.0403      0.0415      0.0332
        24         0.0713      0.0584     -0.0188      0.0088      0.0072
        25        -0.0378      0.0396     -0.0088      0.0031      0.0025
        26        -0.0000     -0.0001     -0.0002      0.0000      0.0000
        27         0.0002      0.0009      0.0034      0.0000      0.0000
        28        -0.0047     -0.0276     -0.1037      0.0115      0.0098
        29         0.2957     -0.3437      0.0783      0.2117      0.1804
        30        -0.2062      0.2403     -0.0548      0.1032      0.0887
        31        -0.0823      0.0945     -0.0215      0.0162      0.0143
        32        -0.0810     -0.0683      0.0218      0.0117      0.0103
        33         0.0082      0.0484      0.1814      0.0353      0.0316
        34        -0.0793     -0.0609      0.0198      0.0104      0.0093
        35         0.0648     -0.0768      0.0176      0.0104      0.0094
        36         0.2332      0.1871     -0.0604      0.0930      0.0846
        37         0.0115     -0.0153      0.0036      0.0004      0.0003
        38         0.3950      0.3167     -0.1022      0.2667      0.2475
        39        -0.0000     -0.0000     -0.0000      0.0000      0.0000
        40        -0.0352      0.0419     -0.0096      0.0031      0.0029
        41         0.0000      0.0001      0.0005      0.0000      0.0000
        42        -0.1080      0.1257     -0.0287      0.0283      0.0275
        43         0.5229     -0.6093      0.1389      0.6640      0.6576
        44         0.0068     -0.0021      0.0003      0.0001      0.0000
        45        -0.0420     -0.0339      0.0109      0.0030      0.0031
        46        -0.0234     -0.1390     -0.5214      0.2917      0.3055
        47        -0.2108     -0.1691      0.0546      0.0760      0.0811
        48         0.0000      0.0001      0.0005      0.0000      0.0000
        49        -0.0170      0.0203     -0.0046      0.0007      0.0008
        50        -0.0868     -0.0697      0.0225      0.0129      0.0143
        51        -0.0050     -0.0299     -0.1120      0.0135      0.0149
        52        -0.1659      0.1932     -0.0441      0.0668      0.0760
        53         0.0036      0.0027     -0.0009      0.0000      0.0000
        54         0.0056     -0.0140      0.0035      0.0002      0.0003
        55         0.1406      0.1120     -0.0362      0.0336      0.0416
        56         0.0052      0.0309      0.1159      0.0144      0.0185
        57        -0.0771     -0.0616      0.0199      0.0101      0.0131
        58        -0.0188     -0.1114     -0.4178      0.1873      0.2472
        59         0.1056      0.0841     -0.0272      0.0189      0.0250
        60         0.0047      0.0279      0.1045      0.0117      0.0156
        61        -0.0000     -0.0001     -0.0002      0.0000      0.0000
        62         0.2311      0.1696     -0.0556      0.0853      0.1145
        63         0.2533     -0.3087      0.0709      0.1645      0.2210
        64        -0.0060     -0.0028      0.0010      0.0000      0.0001
        65         0.0010      0.0062      0.0233      0.0006      0.0008
        66        -0.0000     -0.0000     -0.0000      0.0000      0.0000
        67        -0.1759      0.2046     -0.0466      0.0750      0.1024
        68         0.1323     -0.1545      0.0353      0.0426      0.0592
        69         0.0016      0.0094      0.0353      0.0013      0.0019
        70         0.0274     -0.0328      0.0075      0.0019      0.0027
        71         0.0086      0.0507      0.1902      0.0388      0.0549
        72         0.1221      0.0973     -0.0314      0.0254      0.0360
        73         0.0000      0.0000      0.0001      0.0000      0.0000
        74         0.1444      0.0992     -0.0329      0.0318      0.0466
        75        -0.4424      0.5242     -0.1199      0.4849      0.7129
        76        -0.0000     -0.0001     -0.0003      0.0000      0.0000
        77        -0.6571     -0.5233      0.1691      0.7341      1.0915
        78        -0.3912     -0.3127      0.1010      0.2609      0.3894
        79        -0.0159      0.0179     -0.0041      0.0006      0.0009
        80        -0.0428     -0.2538     -0.9519      0.9723      1.5050
        81        -0.1200     -0.0961      0.0310      0.0246      0.0394
        82        -0.0974      0.1117     -0.0254      0.0226      0.0385
        83         0.0144      0.0114     -0.0037      0.0004      0.0006
        84        -0.0391     -0.0307      0.0099      0.0026      0.0045
        85         0.0218      0.1293      0.4850      0.2524      0.4471
        86        -0.0540     -0.0430      0.0139      0.0050      0.0088
        87        -0.0001     -0.0003     -0.0012      0.0000      0.0000
        88         0.0388     -0.0449      0.0102      0.0036      0.0065
        89        -0.0015     -0.0089     -0.0333      0.0012      0.0022
        90         0.1400     -0.1624      0.0370      0.0474      0.0877
        91        -0.0000     -0.0001     -0.0005      0.0000      0.0000
        92        -0.0985     -0.0785      0.0254      0.0165      0.0314
        93        -0.0082     -0.0483     -0.1813      0.0353      0.0672
        94        -0.0450      0.0519     -0.0118      0.0049      0.0093
        95        -0.0000     -0.0001     -0.0004      0.0000      0.0000
        96         0.0265      0.0201     -0.0066      0.0012      0.0023
        97        -0.2040      0.2372     -0.0541      0.1008      0.2030
        98         0.1708      0.1371     -0.0442      0.0499      0.1034
        99         0.0106      0.0084     -0.0027      0.0002      0.0004
       100         0.0171      0.0136     -0.0044      0.0005      0.0011
       101         0.0075     -0.0087      0.0020      0.0001      0.0003
       102        -0.1141     -0.0910      0.0294      0.0221      0.0527
       103         0.0059     -0.0069      0.0016      0.0001      0.0002
       104        -0.0125     -0.0100      0.0032      0.0003      0.0007
       105         0.0000      0.0001      0.0003      0.0000      0.0000
       106         0.0321      0.0256     -0.0083      0.0018      0.0046
       107        -0.0073      0.0082     -0.0019      0.0001      0.0003
       108        -0.0091      0.0106     -0.0024      0.0002      0.0005
       109        -0.0157     -0.0125      0.0040      0.0004      0.0013
       110        -0.0134     -0.0107      0.0035      0.0003      0.0010
       111        -0.0031     -0.0186     -0.0697      0.0052      0.0683
       112        -0.0192      0.0223     -0.0051      0.0009      0.0121
       113        -0.0266     -0.0227      0.0073      0.0013      0.0174
       114         0.0449     -0.0515      0.0117      0.0048      0.0654
       115        -0.0055     -0.0044      0.0014      0.0001      0.0007
       116         0.0023      0.0135      0.0505      0.0027      0.0380
       117        -0.0621     -0.0496      0.0160      0.0066      0.0918
       118        -0.0027     -0.0159     -0.0597      0.0038      0.0536
       119         0.0008     -0.0009      0.0002      0.0000      0.0000
       120        -0.0102      0.0119     -0.0027      0.0003      0.0036
       121         0.0040     -0.0046      0.0011      0.0000      0.0005
       122         0.0005      0.0000     -0.0000      0.0000      0.0000
       123        -0.0435      0.0507     -0.0116      0.0046      0.0651
       124         0.0047      0.0035     -0.0011      0.0000      0.0005
       125         0.0067      0.0054     -0.0017      0.0001      0.0011
       126         0.0154      0.0123     -0.0040      0.0004      0.0058
       127        -0.0000     -0.0000     -0.0000      0.0000      0.0000
       128        -0.0012     -0.0010      0.0003      0.0000      0.0000
       129         0.0000      0.0001      0.0004      0.0000      0.0000
       130         0.0002      0.0001     -0.0000      0.0000      0.0000
       131        -0.0000     -0.0000     -0.0000      0.0000      0.0000
       132        -0.0000     -0.0001     -0.0005      0.0000      0.0000
       133         0.0023      0.0018     -0.0006      0.0000      0.0001
       134         0.0021      0.0017     -0.0005      0.0000      0.0001
       135         0.0000     -0.0000      0.0000      0.0000      0.0000
       136         0.0006     -0.0007      0.0002      0.0000      0.0000
       137         0.0002      0.0002     -0.0001      0.0000      0.0000
       138         0.0063      0.0051     -0.0016      0.0001      0.0011
 Ground to excited state transition velocity dipole moments (Au):
       state          X           Y           Z        Dip. S.      Osc.
         1         0.0297     -0.0344      0.0078      0.0021      0.0179
         2        -0.0001     -0.0007     -0.0025      0.0000      0.0000
         3        -0.0000     -0.0000     -0.0001      0.0000      0.0000
         4        -0.1492     -0.1184      0.0383      0.0377      0.0474
         5        -0.0019      0.0169     -0.0044      0.0003      0.0004
         6         0.0000      0.0001      0.0005      0.0000      0.0000
         7         0.0738      0.0812     -0.0250      0.0127      0.0139
         8         0.2048     -0.2263      0.0511      0.0958      0.1048
         9         0.2685     -0.3154      0.0720      0.1767      0.1870
        10         0.1794     -0.2164      0.0496      0.0815      0.0729
        11        -0.2201     -0.1667      0.0544      0.0792      0.0705
        12         0.0106      0.0629      0.2359      0.0597      0.0530
        13        -0.2747     -0.2206      0.0712      0.1292      0.1069
        14         0.0077      0.0455      0.1706      0.0312      0.0254
        15         0.0922      0.0730     -0.0236      0.0144      0.0113
        16        -0.2075      0.2404     -0.0548      0.1039      0.0664
        17         0.0956      0.0767     -0.0247      0.0156      0.0097
        18         0.2519      0.2013     -0.0650      0.1082      0.0651
        19        -0.0081     -0.0481     -0.1805      0.0350      0.0201
        20         0.0467      0.0366     -0.0119      0.0037      0.0021
        21        -0.0323      0.0380     -0.0087      0.0026      0.0015
        22         0.0048      0.0285      0.1070      0.0123      0.0068
        23        -0.2005     -0.1623      0.0523      0.0693      0.0384
        24        -0.0950     -0.0787      0.0253      0.0159      0.0087
        25         0.0900     -0.0988      0.0223      0.0183      0.0100
        26         0.0000      0.0001      0.0002      0.0000      0.0000
        27        -0.0002     -0.0012     -0.0046      0.0000      0.0000
        28         0.0071      0.0419      0.1572      0.0265      0.0138
        29        -0.2327      0.2709     -0.0618      0.1314      0.0685
        30         0.1771     -0.2063      0.0470      0.0761      0.0394
        31         0.0763     -0.0878      0.0200      0.0139      0.0070
        32         0.0582      0.0497     -0.0159      0.0061      0.0031
        33        -0.0055     -0.0328     -0.1229      0.0162      0.0080
        34         0.1149      0.0890     -0.0289      0.0219      0.0109
        35        -0.1003      0.1185     -0.0271      0.0248      0.0123
        36        -0.2111     -0.1698      0.0548      0.0764      0.0373
        37         0.0266     -0.0299      0.0068      0.0016      0.0008
        38        -0.3059     -0.2452      0.0791      0.1600      0.0766
        39         0.0000      0.0001      0.0003      0.0000      0.0000
        40         0.0725     -0.0852      0.0195      0.0129      0.0061
        41        -0.0000     -0.0001     -0.0005      0.0000      0.0000
        42         0.1801     -0.2097      0.0478      0.0787      0.0359
        43        -0.4407      0.5132     -0.1170      0.4713      0.2115
        44         0.0141      0.0183     -0.0055      0.0006      0.0003
        45         0.0437      0.0355     -0.0114      0.0033      0.0014
        46         0.0246      0.1459      0.5474      0.3216      0.1365
        47         0.1972      0.1581     -0.0510      0.0665      0.0277
        48        -0.0000     -0.0003     -0.0010      0.0000      0.0000
        49         0.0247     -0.0291      0.0067      0.0015      0.0006
        50         0.2290      0.1839     -0.0593      0.0898      0.0360
        51         0.0121      0.0716      0.2684      0.0773      0.0309
        52         0.1587     -0.1852      0.0422      0.0613      0.0239
        53        -0.0737     -0.0589      0.0190      0.0093      0.0034
        54         0.0381     -0.0299      0.0062      0.0024      0.0009
        55        -0.2902     -0.2336      0.0753      0.1445      0.0519
        56        -0.0085     -0.0506     -0.1897      0.0386      0.0134
        57         0.1561      0.1246     -0.0402      0.0415      0.0143
        58         0.0344      0.2042      0.7659      0.6295      0.2119
        59        -0.2270     -0.1807      0.0584      0.0876      0.0295
        60        -0.0103     -0.0611     -0.2293      0.0564      0.0189
        61         0.0000      0.0002      0.0006      0.0000      0.0000
        62        -0.3948     -0.2933      0.0960      0.2511      0.0831
        63        -0.3687      0.4530     -0.1042      0.3520      0.1164
        64         0.0263      0.0181     -0.0060      0.0011      0.0003
        65        -0.0007     -0.0043     -0.0163      0.0003      0.0001
        66         0.0000      0.0000      0.0000      0.0000      0.0000
        67         0.2143     -0.2490      0.0568      0.1112      0.0362
        68        -0.2710      0.3162     -0.0721      0.1786      0.0572
        69        -0.0031     -0.0182     -0.0683      0.0050      0.0016
        70        -0.0131      0.0166     -0.0038      0.0005      0.0001
        71        -0.0105     -0.0622     -0.2332      0.0583      0.0183
        72        -0.2368     -0.1888      0.0610      0.0955      0.0299
        73        -0.0000     -0.0000     -0.0000      0.0000      0.0000
        74        -0.2296     -0.1610      0.0533      0.0815      0.0247
        75         0.6097     -0.7234      0.1654      0.9224      0.2788
        76         0.0000      0.0001      0.0004      0.0000      0.0000
        77         0.9109      0.7254     -0.2344      1.4108      0.4217
        78         0.5529      0.4418     -0.1426      0.5212      0.1552
        79        -0.0926      0.1086     -0.0248      0.0210      0.0062
        80         0.0588      0.3485      1.3073      1.8339      0.5266
        81         0.2134      0.1707     -0.0551      0.0777      0.0216
        82         0.2185     -0.2520      0.0573      0.1145      0.0299
        83        -0.0364     -0.0289      0.0093      0.0023      0.0006
        84         0.0756      0.0593     -0.0192      0.0096      0.0024
        85        -0.0412     -0.2442     -0.9159      0.9002      0.2258
        86         0.0698      0.0556     -0.0180      0.0083      0.0021
        87         0.0001      0.0005      0.0021      0.0000      0.0000
        88        -0.0641      0.0740     -0.0168      0.0099      0.0025
        89         0.0014      0.0084      0.0314      0.0011      0.0003
        90        -0.3078      0.3571     -0.0814      0.2289      0.0549
        91         0.0000      0.0003      0.0009      0.0000      0.0000
        92         0.1521      0.1211     -0.0391      0.0393      0.0092
        93         0.0141      0.0837      0.3139      0.1057      0.0246
        94         0.1064     -0.1230      0.0280      0.0272      0.0063
        95         0.0000      0.0003      0.0010      0.0000      0.0000
        96        -0.0576     -0.0431      0.0141      0.0054      0.0012
        97         0.5210     -0.6056      0.1380      0.6573      0.1451
        98        -0.5250     -0.4213      0.1359      0.4716      0.1013
        99        -0.0134     -0.0105      0.0034      0.0003      0.0001
       100        -0.0150     -0.0121      0.0039      0.0004      0.0001
       101         0.0033     -0.0041      0.0009      0.0000      0.0000
       102        -0.0629     -0.0498      0.0161      0.0067      0.0012
       103         0.0324     -0.0377      0.0086      0.0025      0.0005
       104        -0.0431     -0.0342      0.0111      0.0031      0.0005
       105        -0.0120     -0.0713     -0.2676      0.0768      0.0131
       106        -0.2437     -0.1947      0.0629      0.1013      0.0171
       107        -0.0010      0.0020     -0.0005      0.0000      0.0000
       108         0.1503     -0.1754      0.0400      0.0550      0.0090
       109         0.0251      0.0200     -0.0065      0.0011      0.0002
       110         0.0362      0.0290     -0.0094      0.0022      0.0003
       111         0.0567      0.3360      1.2601      1.7040      0.0578
       112         0.3638     -0.4227      0.0963      0.3203      0.0105
       113         0.5041      0.4297     -0.1372      0.4576      0.0150
       114        -0.8520      0.9786     -0.2226      1.7330      0.0566
       115         0.1047      0.0830     -0.0268      0.0186      0.0006
       116        -0.0440     -0.2608     -0.9783      1.0270      0.0328
       117         1.2470      0.9967     -0.3218      2.6519      0.0845
       118         0.0529      0.3139      1.1772      1.4871      0.0472
       119        -0.0226      0.0264     -0.0060      0.0012      0.0000
       120         0.2083     -0.2428      0.0554      0.1054      0.0033
       121        -0.0722      0.0839     -0.0191      0.0126      0.0004
       122        -0.0062      0.0031     -0.0005      0.0000      0.0000
       123         0.8825     -1.0285      0.2345      1.8916      0.0594
       124        -0.0842     -0.0626      0.0205      0.0114      0.0004
       125        -0.1383     -0.1110      0.0358      0.0327      0.0010
       126        -0.3197     -0.2554      0.0825      0.1743      0.0054
       127         0.0000      0.0000      0.0000      0.0000      0.0000
       128         0.0267      0.0213     -0.0069      0.0012      0.0000
       129        -0.0002     -0.0015     -0.0055      0.0000      0.0000
       130        -0.0006     -0.0005      0.0002      0.0000      0.0000
       131        -0.0000     -0.0000     -0.0000      0.0000      0.0000
       132         0.0004      0.0021      0.0080      0.0001      0.0000
       133        -0.0575     -0.0456      0.0147      0.0056      0.0002
       134        -0.0539     -0.0427      0.0138      0.0049      0.0001
       135        -0.0138      0.0159     -0.0036      0.0005      0.0000
       136        -0.0225      0.0260     -0.0059      0.0012      0.0000
       137        -0.0063     -0.0050      0.0016      0.0001      0.0000
       138        -0.1381     -0.1107      0.0357      0.0326      0.0009
 Ground to excited state transition magnetic dipole moments (Au):
       state          X           Y           Z
         1         0.0073     -0.0109     -0.0753
         2         0.6205     -0.7457      0.1709
         3         0.7569      0.6035     -0.1949
         4         0.0819      0.2206      1.0015
         5        -0.0156     -0.0618     -0.2294
         6         0.1509      0.1225     -0.0394
         7        -0.0544     -0.1497     -0.6477
         8         0.1209      0.3633      1.1235
         9         0.1494      0.3876      1.1406
        10         0.0955      0.2229      0.6268
        11         0.1169      0.3171      1.4464
        12         0.4002      1.4939     -0.4163
        13         0.1526      0.4125      1.8678
        14         0.5797      0.7405     -0.2235
        15        -0.0506     -0.1365     -0.6197
        16        -0.1289     -0.3851     -1.2021
        17        -0.0531     -0.1436     -0.6502
        18        -0.1395     -0.3772     -1.7089
        19        -0.3135     -1.1333      0.3162
        20        -0.0254     -0.0687     -0.3122
        21        -0.0225     -0.0734     -0.2376
        22         0.2369      0.6115     -0.1737
        23         0.1122      0.3033      1.3717
        24         0.0542      0.1468      0.6614
        25         0.0500      0.1422      0.4281
        26        -0.0851     -0.0667      0.0216
        27         0.1320      0.0840     -0.0283
        28         0.2919      0.9727     -0.2725
        29        -0.1431     -0.4212     -1.3080
        30         0.1126      0.3417      1.0750
        31         0.0478      0.1449      0.4546
        32        -0.0341     -0.0925     -0.4149
        33        -0.2089     -0.7768      0.2165
        34        -0.0620     -0.1676     -0.7627
        35        -0.0524     -0.1230     -0.3441
        36         0.1175      0.3176      1.4377
        37         0.0155      0.0450      0.1376
        38         0.1698      0.4589      2.0785
        39        -0.0649     -0.0506      0.0164
        40         0.0418      0.1135      0.3409
        41         0.0483      0.0366     -0.0119
        42         0.1038      0.2848      0.8580
        43        -0.2424     -0.6276     -1.8394
        44        -0.0118     -0.0316     -0.1351
        45        -0.0245     -0.0663     -0.2996
        46         1.1588      3.1934     -0.9035
        47        -0.1095     -0.2959     -1.3400
        48        -0.1970     -0.1623      0.0521
        49         0.0124      0.0272      0.0731
        50        -0.1274     -0.3444     -1.5592
        51         0.4821      1.6670     -0.4661
        52         0.0812      0.1890      0.5239
        53         0.0408      0.1104      0.5000
        54         0.0097      0.0142      0.0088
        55         0.1615      0.4364      1.9755
        56        -0.4106     -1.0961      0.3107
        57        -0.0863     -0.2334     -1.0577
        58         1.6888      4.3896     -1.2463
        59         0.1253      0.3388      1.5356
        60        -0.4810     -1.3422      0.3795
        61         0.0597      0.0505     -0.0161
        62         0.2059      0.5566      2.5486
        63        -0.2232     -0.6023     -1.8289
        64        -0.0129     -0.0349     -0.1615
        65        -0.0153     -0.1182      0.0322
        66         0.1374      0.1099     -0.0355
        67         0.1279      0.3655      1.1206
        68        -0.1523     -0.4036     -1.1975
        69        -0.1144     -0.4337      0.1208
        70        -0.0099     -0.0321     -0.1050
        71        -0.4769     -1.3791      0.3891
        72         0.1309      0.3538      1.6033
        73         0.0912      0.0728     -0.0235
        74         0.1146      0.3109      1.4342
        75         0.3395      0.8678      2.5432
        76         0.1344      0.1092     -0.0352
        77        -0.5029     -1.3595     -6.1624
        78        -0.3061     -0.8275     -3.7489
        79        -0.0568     -0.1652     -0.5116
        80         2.9293      7.4378     -2.1147
        81        -0.1183     -0.3197     -1.4482
        82         0.1258      0.3490      1.0541
        83         0.0200      0.0542      0.2459
        84        -0.0412     -0.1114     -0.5060
        85        -2.0035     -5.2676      1.4945
        86        -0.0386     -0.1043     -0.4726
        87         0.0717      0.0653     -0.0206
        88        -0.0360     -0.0970     -0.2890
        89         0.1042      0.1394     -0.0419
        90        -0.1740     -0.4684     -1.3977
        91         0.1228      0.1017     -0.0326
        92        -0.0840     -0.2270     -1.0288
        93         0.7367      1.7471     -0.4989
        94         0.0598      0.1606      0.4783
        95         0.0204      0.0203     -0.0063
        96         0.0302      0.0818      0.3739
        97         0.2936      0.7853      2.3372
        98         0.2917      0.7885      3.5704
        99         0.0073      0.0197      0.0896
       100         0.0084      0.0227      0.1027
       101         0.0022      0.0067      0.0213
       102         0.0345      0.0934      0.4236
       103         0.0186      0.0511      0.1539
       104         0.0237      0.0641      0.2908
       105        -0.5693     -1.5574      0.4408
       106         0.1349      0.3647      1.6523
       107        -0.0009     -0.0021     -0.0066
       108         0.0857      0.2313      0.6921
       109        -0.0138     -0.0374     -0.1696
       110        -0.0201     -0.0543     -0.2461
       111         2.6724      7.3455     -2.0786
       112         0.2076      0.5642      1.6917
       113        -0.2945     -0.7963     -3.5750
       114        -0.4797     -1.3036     -3.8951
       115        -0.0576     -0.1557     -0.7061
       116        -2.0749     -5.7025      1.6137
       117        -0.6905     -1.8665     -8.4564
       118         2.4966      6.8621     -1.9418
       119        -0.0130     -0.0353     -0.1060
       120         0.1193      0.3243      0.9732
       121        -0.0412     -0.1121     -0.3361
       122        -0.0012     -0.0032     -0.0048
       123         0.5054      1.3734      4.1214
       124         0.0439      0.1186      0.5433
       125         0.0769      0.2078      0.9408
       126         0.1770      0.4784      2.1675
       127        -0.0001     -0.0000      0.0000
       128        -0.0148     -0.0399     -0.1810
       129        -0.0116     -0.0318      0.0090
       130         0.0004      0.0010      0.0043
       131         0.0006      0.0005     -0.0002
       132         0.0174      0.0459     -0.0130
       133         0.0316      0.0855      0.3878
       134         0.0296      0.0801      0.3635
       135        -0.0078     -0.0212     -0.0634
       136        -0.0127     -0.0346     -0.1037
       137         0.0035      0.0093      0.0423
       138         0.0766      0.2072      0.9382
 Ground to excited state transition velocity quadrupole moments (Au):
       state          XX          YY          ZZ          XY          XZ          YZ
         1        -0.2059     -0.2761     -0.0094      0.2380     -0.0450      0.0522
         2         0.0029      0.0044     -0.0089      0.0089      0.0318      0.0072
         3        -0.0030      0.0210     -0.0181     -0.0072     -0.0339      0.0370
         4         1.5803     -0.6142      0.0042      0.2959     -0.1957      0.1175
         5        -0.0598      0.1617      0.0060     -0.0824      0.0240     -0.0343
         6        -0.0081      0.0550     -0.0466     -0.0194     -0.0913      0.0970
         7        -0.8176      0.4497      0.0079     -0.3221      0.1457     -0.0799
         8        -1.8485     -1.4513     -0.0353      1.6555     -0.2945      0.2421
         9        -2.6634     -1.7757     -0.0310      2.3231     -0.4161      0.2708
        10        -1.5610     -1.4212     -0.0342      1.5515     -0.2875      0.2423
        11         2.1956     -1.1291      0.0173      0.7946     -0.3771      0.2250
        12        -0.1108      0.3277     -0.0700     -0.3008     -1.2336      0.6052
        13         2.3166     -1.8543     -0.1080      0.9407     -0.4428      0.3697
        14        -0.0982      0.1523      0.0521     -0.2782     -1.0904      0.2925
        15        -0.7410      0.7385      0.1385     -0.5277      0.2083     -0.1174
        16         1.8044      1.5891      0.0401     -1.7294      0.3153     -0.2713
        17        -1.1062      0.3787      0.3400     -0.2952      0.1746      0.0333
        18        -2.1889      1.5291      0.2829     -0.5345      0.3306     -0.2543
        19         0.1168     -0.0992     -0.1300      0.3379      1.2958     -0.2033
        20        -0.8326     -0.0624      0.4495     -0.1640      0.1183      0.1697
        21         0.5140      0.0335     -0.0090     -0.3160      0.0511      0.0173
        22        -0.0570      0.1166      0.0070     -0.1593     -0.6341      0.2197
        23         2.0583     -1.0294     -0.2465      0.6751     -0.3459      0.1285
        24         0.9253     -0.5795     -0.2580      0.3905     -0.1871      0.0423
        25        -0.7290     -0.7052     -0.0165      0.7057     -0.1272      0.1268
        26        -0.0220      0.1513     -0.1292     -0.0524     -0.2473      0.2665
        27        -0.0117      0.1016     -0.0928     -0.0260     -0.1318      0.1782
        28        -0.1108      0.0486      0.1600     -0.3243     -1.2282      0.1125
        29         2.7681      1.1007     -0.0039     -2.0838      0.3587     -0.1152
        30        -2.3227     -0.6348      0.0188      1.6268     -0.2741      0.0320
        31        -0.1982     -1.0160     -0.0467      0.5484     -0.1135      0.2190
        32        -0.7399      0.1515     -0.0565     -0.1461      0.0878     -0.0334
        33         0.0462     -0.2253      0.1025      0.1181      0.5165     -0.4088
        34        -1.6615      0.2012     -0.2160     -0.6653      0.2785     -0.0515
[...]
      7   0.423994D-04  0.567509D-01 -0.721281D-01 -0.682922D-01 -0.384598D-02
      8   0.137351D+00  0.127885D+00 -0.152265D+00 -0.114433D+00 -0.989856D-02
      9   0.109875D+00  0.365459D+00 -0.403588D+00 -0.433676D+00 -0.320694D-01
     10  -0.354709D-01  0.112060D+01 -0.119753D+01  0.120769D+00 -0.104954D+00
     11   0.159756D-01 -0.189515D+01  0.337988D+01  0.418802D-01  0.169461D+00
     12  -0.110770D+00 -0.162088D+01  0.113689D+01 -0.482481D-01  0.548031D-01
     13   0.948208D-01 -0.403211D-01 -0.150392D-01 -0.361339D-01 -0.138831D-02
     14   0.380100D-01  0.179670D+01 -0.245837D+01  0.120066D+00 -0.127498D+00
     15   0.179743D+00 -0.327075D+00  0.419162D+00  0.464796D+00  0.222749D-01
     16  -0.195098D+00  0.273944D+00 -0.938055D-01 -0.953012D-01 -0.374910D-02
                71            72            73            74            75 
      1  -0.736383D+02 -0.736309D+02 -0.736093D+02 -0.735588D+02 -0.735550D+02
      2   0.855305D-02  0.122143D+00  0.457195D-05  0.144425D+00 -0.442443D+00
      3   0.507036D-01  0.972808D-01  0.271032D-04  0.991693D-01  0.524197D+00
      4   0.190179D+00 -0.314293D-01  0.101658D-03 -0.329349D-01 -0.119858D+00
      5  -0.104868D-01 -0.236820D+00 -0.163098D-05 -0.229639D+00  0.609714D+00
      6  -0.621670D-01 -0.188812D+00 -0.966867D-05 -0.161015D+00 -0.723382D+00
      7  -0.233176D+00  0.609898D-01 -0.362652D-04  0.532561D-01  0.165440D+00
      8  -0.476941D+00  0.130862D+00  0.912336D-01  0.114604D+00  0.339477D+00
      9  -0.137914D+01  0.353774D+00  0.727673D-01  0.310908D+00  0.867779D+00
     10   0.389142D+00  0.160334D+01 -0.235036D-01  0.143418D+01  0.254323D+01
     11   0.136467D+00  0.337143D+01  0.225388D-03  0.309202D+01 -0.704985D+01
     12  -0.197073D+00 -0.126131D+00 -0.125598D-02 -0.301840D+00 -0.311042D+01
     13  -0.845116D-01 -0.374121D+00  0.100803D-02 -0.238073D+00 -0.513852D-02
     14   0.387876D+00  0.219812D+00  0.562132D-03  0.409753D+00  0.550140D+01
     15   0.151529D+01 -0.304068D+00  0.252845D-02 -0.332661D+00 -0.960169D+00
     16  -0.380855D+00 -0.154439D+00 -0.222110D-02 -0.645248D-01  0.355408D+00
                76            77            78            79            80 
      1  -0.735530D+02 -0.735302D+02 -0.735219D+02 -0.735016D+02 -0.734386D+02
      2  -0.133053D-04 -0.657053D+00 -0.391150D+00 -0.158925D-01 -0.428101D-01
      3  -0.788755D-04 -0.523293D+00 -0.312662D+00  0.179486D-01 -0.253784D+00
      4  -0.295846D-03  0.169065D+00  0.100950D+00 -0.407053D-02 -0.951893D+00
      5   0.195083D-04  0.910873D+00  0.552868D+00 -0.926162D-01  0.587926D-01
      6   0.115648D-03  0.725361D+00  0.441775D+00  0.108557D+00  0.348530D+00
      7   0.433771D-03 -0.234354D+00 -0.142646D+00 -0.247771D-01  0.130727D+01
      8   0.134369D+00 -0.502863D+00 -0.306072D+00 -0.567896D-01  0.292934D+01
      9   0.109234D+00 -0.135953D+01 -0.827459D+00 -0.165223D+00  0.743777D+01
     10  -0.351659D-01 -0.616245D+01 -0.374891D+01 -0.511619D+00 -0.211473D+01
     11   0.570817D-03 -0.106169D+02 -0.612812D+01  0.141430D+01 -0.693440D+00
     12  -0.572535D-02  0.318982D+01  0.220997D+01  0.150131D+00  0.144103D+01
     13   0.542450D-02 -0.231241D+00  0.436457D+00 -0.241041D-01  0.659864D-01
     14   0.120904D-02 -0.263841D+01 -0.142386D+01 -0.891213D+00 -0.193386D+01
     15   0.646811D-02  0.145332D+01  0.847381D+00  0.145139D+00 -0.770792D+01
     16  -0.100142D-01 -0.571467D+00 -0.268416D+00  0.335921D-01  0.271131D+01
                81            82            83            84            85 
      1  -0.733569D+02 -0.732102D+02 -0.731565D+02 -0.731144D+02 -0.731032D+02
      2  -0.120013D+00 -0.974419D-01  0.144243D-01 -0.390739D-01  0.218103D-01
      3  -0.961324D-01  0.111699D+00  0.113840D-01 -0.307035D-01  0.129295D+00
      4   0.310273D-01 -0.253978D-01 -0.368380D-02  0.994317D-02  0.484957D+00
      5   0.213419D+00  0.218481D+00 -0.364437D-01  0.755761D-01 -0.411907D-01
      6   0.170719D+00 -0.251960D+00 -0.288979D-01  0.592879D-01 -0.244184D+00
      7  -0.551137D-01  0.573492D-01  0.934349D-02 -0.192057D-01 -0.915886D+00
      8  -0.118255D+00  0.125812D+00  0.200500D-01 -0.412057D-01 -0.200347D+01
      9  -0.319699D+00  0.349031D+00  0.542109D-01 -0.111388D+00 -0.526761D+01
     10  -0.144822D+01  0.105414D+01  0.245869D+00 -0.506001D+00  0.149450D+01
     11  -0.197986D+01 -0.205830D+01  0.359988D+00 -0.114426D+01  0.504718D+00
     12   0.115412D+01 -0.152428D+01 -0.180572D+00 -0.170663D+00 -0.920064D+00
     13   0.121831D+01 -0.323363D-01  0.396934D-01  0.412166D+00 -0.154657D+00
     14  -0.183469D+00  0.184262D+01  0.924188D-01  0.388109D+00  0.141842D+01
     15   0.261572D+00 -0.330691D+00 -0.500465D-01 -0.766684D-02  0.560779D+01
     16   0.927936D-01  0.245199D+00  0.475832D-01  0.169965D+00 -0.174610D+01
                86            87            88            89            90 
      1  -0.731012D+02 -0.730808D+02 -0.730786D+02 -0.730432D+02 -0.729823D+02
      2  -0.540044D-01 -0.518782D-04  0.387719D-01 -0.149973D-02  0.139988D+00
      3  -0.430058D-01 -0.307541D-03 -0.449166D-01 -0.889058D-02 -0.162436D+00
      4   0.138946D-01 -0.115352D-02  0.102315D-01 -0.333468D-01  0.370113D-01
      5   0.698406D-01  0.925338D-04 -0.640583D-01  0.141360D-02 -0.307826D+00
      6   0.555931D-01  0.548553D-03  0.739725D-01  0.837999D-02  0.357138D+00
      7  -0.179627D-01  0.205751D-02 -0.168409D-01  0.314316D-01 -0.813725D-01
      8  -0.385527D-01  0.717376D-01 -0.360143D-01  0.104207D+00 -0.173992D+00
      9  -0.104261D+00  0.653300D-01 -0.969747D-01  0.139435D+00 -0.468427D+00
     10  -0.472575D+00 -0.206440D-01 -0.288966D+00 -0.418613D-01 -0.139769D+01
     11  -0.618791D+00 -0.230440D-01  0.823735D+00  0.111234D-01  0.425258D+01
     12   0.228689D+00  0.154089D+00  0.244683D+00  0.165885D+00  0.898011D+00
     13  -0.249413D+00 -0.129764D+00 -0.689981D-02 -0.157446D+00 -0.469884D-01
     14   0.289461D+00 -0.553076D-01 -0.582013D+00  0.469619D-01 -0.285565D+01
     15  -0.402354D-01 -0.259113D+00  0.981170D-01  0.120125D+00  0.474290D+00
     16  -0.131527D+00  0.271680D+00 -0.164784D-01  0.290111D+00  0.572524D-04
                91            92            93            94            95 
      1  -0.729334D+02 -0.729090D+02 -0.728999D+02 -0.728735D+02 -0.728026D+02
      2  -0.243994D-04 -0.984589D-01 -0.815195D-02 -0.449606D-01 -0.194651D-04
      3  -0.144643D-03 -0.784773D-01 -0.483259D-01  0.519106D-01 -0.115392D-03
      4  -0.542526D-03  0.253509D-01 -0.181260D+00 -0.118178D-01 -0.432810D-03
      5   0.422154D-04  0.152063D+00  0.141174D-01  0.106383D+00  0.442541D-04
      6   0.250259D-03  0.121089D+00  0.836901D-01 -0.123010D+00  0.262344D-03
      7   0.938670D-03 -0.391224D-01  0.313905D+00  0.280113D-01  0.983999D-03
      8   0.122801D+00 -0.839507D-01  0.736728D+00  0.597901D-01  0.204478D-01
      9   0.101672D+00 -0.226981D+00  0.174707D+01  0.160632D+00  0.202643D-01
     10  -0.326297D-01 -0.102884D+01 -0.498919D+00  0.478331D+00 -0.632228D-02
     11  -0.646674D-01 -0.132105D+01 -0.913175D-01 -0.135719D+01  0.154450D-01
     12   0.445259D+00  0.564472D+00  0.701711D+00 -0.413428D+00 -0.109301D+00
     13  -0.380008D+00 -0.529808D+00 -0.415035D+00  0.853529D-02  0.944685D-01
     14  -0.154124D+00  0.520035D+00 -0.211487D+00  0.964205D+00  0.365613D-01
     15  -0.727492D+00 -0.588635D-01 -0.102457D+01 -0.162920D+00  0.173836D+00
     16   0.784381D+00 -0.295951D+00  0.126066D+01  0.286146D-01 -0.192390D+00
                96            97            98            99           100 
      1  -0.727710D+02 -0.727395D+02 -0.726555D+02 -0.724830D+02 -0.723500D+02
      2   0.265442D-01 -0.204003D+00  0.170820D+00  0.106088D-01  0.170864D-01
      3   0.201108D-01  0.237195D+00  0.137138D+00  0.844457D-02  0.135986D-01
      4  -0.655552D-02 -0.540638D-01 -0.442449D-01 -0.272852D-02 -0.439395D-02
      5  -0.575639D-01  0.521043D+00 -0.524993D+00 -0.133637D-01 -0.150343D-01
      6  -0.431406D-01 -0.605613D+00 -0.421334D+00 -0.105058D-01 -0.121309D-01
      7   0.140906D-01  0.138029D+00  0.135943D+00  0.340196D-02  0.391038D-02
      8   0.302382D-01  0.293566D+00  0.291682D+00  0.730085D-02  0.839381D-02
      9   0.817628D-01  0.785268D+00  0.788534D+00  0.197420D-01  0.227035D-01
     10   0.373862D+00  0.233724D+01  0.357038D+01  0.896459D-01  0.102704D+00
     11   0.713695D+00 -0.685746D+01  0.660653D+01  0.334998D+00  0.463213D+00
     12  -0.152841D+00 -0.184105D+01 -0.137671D+01  0.108899D+00  0.227077D+00
     13  -0.289949D-01  0.554321D-01 -0.290439D+00 -0.289641D+00 -0.488335D+00
     14   0.138988D+00  0.477828D+01  0.140092D+01  0.615105D-02 -0.961767D-01
     15  -0.886027D-01 -0.803413D+00 -0.849712D+00 -0.354364D-01 -0.243982D-01
     16   0.119623D-01  0.873993D-01  0.796959D-01 -0.118964D+00 -0.205403D+00
               101           102           103           104           105 
      1  -0.722012D+02 -0.721883D+02 -0.720169D+02 -0.718902D+02 -0.718532D+02
      2   0.752428D-02 -0.114081D+00  0.593275D-02 -0.125143D-01  0.130905D-04
      3  -0.870668D-02 -0.909503D-01 -0.691491D-02 -0.997048D-02  0.776021D-04
      4   0.198289D-02  0.293789D-01  0.157677D-02  0.322105D-02  0.291069D-03
      5   0.333604D-02 -0.628974D-01  0.323684D-01 -0.430691D-01 -0.120327D-01
      6  -0.410449D-02 -0.497516D-01 -0.376542D-01 -0.341999D-01 -0.713316D-01
      7   0.944266D-03  0.160930D-01  0.858327D-02  0.110550D-01 -0.267550D+00
      8   0.223430D-02  0.345336D-01  0.186403D-01  0.237201D-01 -0.569339D+00
      9   0.671182D-02  0.933710D-01  0.511144D-01  0.641256D-01 -0.155737D+01
     10   0.212810D-01  0.423627D+00  0.153940D+00  0.290790D+00  0.440815D+00
     11   0.105505D+00  0.780083D+00 -0.684607D-01  0.546859D+00  0.139818D+00
     12  -0.151464D+00 -0.165596D+00 -0.447395D+00 -0.965269D-01 -0.305036D+00
     13  -0.981194D-02 -0.163312D+00 -0.207262D-01  0.247195D-01 -0.129214D-02
     14   0.469561D-02  0.115251D+00  0.231882D+00  0.926949D-01  0.388702D+00
     15  -0.495678D-02 -0.934320D-01 -0.486559D-01 -0.616727D-01  0.155441D+01
     16   0.389052D-01 -0.242340D-01  0.972238D-01  0.170713D-01 -0.572236D+00
               106           107           108           109           110 
      1  -0.718062D+02 -0.717494D+02 -0.717008D+02 -0.711870D+02 -0.710038D+02
      2   0.320664D-01 -0.728660D-02 -0.912179D-02 -0.157006D-01 -0.133946D-01
      3   0.256062D-01  0.820688D-02  0.105960D-01 -0.125253D-01 -0.107074D-01
      4  -0.826903D-02 -0.186033D-02 -0.241477D-02  0.404547D-02  0.345711D-02
      5  -0.243680D+00 -0.977874D-03  0.150314D+00  0.250528D-01  0.362447D-01
      6  -0.194736D+00  0.196929D-02 -0.175410D+00  0.199722D-01  0.290148D-01
      7   0.628777D-01 -0.481053D-03  0.400060D-01 -0.645151D-02 -0.936569D-02
      8   0.134909D+00 -0.911136D-03  0.857102D-01 -0.138424D-01 -0.200955D-01
      9   0.364705D+00 -0.207290D-02  0.231298D+00 -0.374210D-01 -0.543271D-01
     10   0.165235D+01 -0.663370D-02  0.692113D+00 -0.169599D+00 -0.246073D+00
     11   0.305676D+01  0.165912D-01 -0.188141D+01 -0.459215D+00 -0.867523D+00
     12  -0.602846D+00  0.277611D-02 -0.623222D+00 -0.812197D-01 -0.316702D+00
     13   0.163417D+00 -0.835072D-03  0.971372D-02 -0.218210D+00 -0.459830D+00
     14   0.586392D+00 -0.145363D-01  0.136516D+01 -0.760956D-01 -0.108278D+00
     15  -0.362512D+00  0.280480D-02 -0.232569D+00  0.387571D-01  0.584371D-01
     16   0.116007D+00  0.406182D-03  0.502302D-01 -0.278666D-01 -0.245268D-01
               111           112           113           114           115 
      1  -0.560933D+02 -0.554396D+02 -0.553702D+02 -0.553511D+02 -0.549123D+02
      2  -0.313414D-02 -0.191905D-01 -0.266317D-01  0.448601D-01 -0.550269D-02
      3  -0.185796D-01  0.223017D-01 -0.227025D-01 -0.515245D-01 -0.436396D-02
      4  -0.696883D-01 -0.508279D-02  0.725043D-02  0.117194D-01  0.141095D-02
      5   0.566722D-01  0.363764D+00  0.504093D+00 -0.851972D+00  0.104694D+00
      6   0.335961D+00 -0.422736D+00  0.429744D+00  0.978567D+00  0.830074D-01
      7   0.126012D+01  0.963459D-01 -0.137245D+00 -0.222580D+00 -0.268391D-01
      8   0.267241D+01  0.207626D+00 -0.294505D+00 -0.479684D+00 -0.575847D-01
      9   0.734548D+01  0.564215D+00 -0.796260D+00 -0.130359D+01 -0.155669D+00
     10  -0.207857D+01  0.169168D+01 -0.357496D+01 -0.389512D+01 -0.706075D+00
     11  -0.660579D+00 -0.424805D+01 -0.576209D+01  0.995232D+01 -0.119375D+01
     12   0.142674D+01 -0.178766D+01  0.193783D+01  0.413256D+01  0.379020D+00
     13   0.180763D-01  0.201631D-02  0.122685D+00 -0.649011D-02  0.316255D-01
     14  -0.183766D+01  0.323760D+01 -0.143155D+01 -0.751647D+01 -0.260155D+00
     15  -0.734365D+01 -0.558929D+00  0.803313D+00  0.129118D+01  0.157083D+00
     16   0.267811D+01  0.199477D+00 -0.285074D+00 -0.459691D+00 -0.548797D-01
               116           117           118           119           120 
      1  -0.549020D+02 -0.548324D+02 -0.547349D+02 -0.546041D+02 -0.545933D+02
      2   0.226938D-02 -0.621167D-01 -0.268559D-02  0.751850D-03 -0.102450D-01
      3   0.134532D-01 -0.496477D-01 -0.159205D-01 -0.876134D-03  0.119457D-01
      4   0.504603D-01  0.160302D-01 -0.597146D-01  0.199773D-03 -0.272410D-02
      5  -0.439977D-01  0.124699D+01  0.529430D-01 -0.226402D-01  0.208264D+00
      6  -0.260824D+00  0.996657D+00  0.313853D+00  0.264368D-01 -0.242793D+00
      7  -0.978299D+00 -0.321801D+00  0.117720D+01 -0.603010D-02  0.553647D-01
      8  -0.207493D+01 -0.690451D+00  0.249657D+01 -0.129947D-01  0.119318D+00
      9  -0.570247D+01 -0.186653D+01  0.686210D+01 -0.353119D-01  0.324263D+00
     10   0.161365D+01 -0.845640D+01 -0.194179D+01 -0.106023D+00  0.973166D+00
     11   0.513090D+00 -0.146127D+02 -0.617522D+00  0.211201D+00 -0.242697D+01
     12  -0.110647D+01  0.415704D+01  0.133089D+01  0.161036D+00 -0.103213D+01
     13  -0.154632D-01 -0.620282D-01  0.192679D-01  0.325425D-02  0.392837D-03
     14   0.142751D+01 -0.316268D+01 -0.171813D+01 -0.192595D+00  0.185704D+01
     15   0.570399D+01  0.188591D+01 -0.686494D+01  0.347921D-01 -0.321166D+00
     16  -0.207714D+01 -0.670848D+00  0.249851D+01 -0.261169D-01  0.116014D+00
               121           122           123           124           125 
      1  -0.545683D+02 -0.545526D+02 -0.545310D+02 -0.545079D+02 -0.543202D+02
      2   0.397371D-02  0.502352D-03 -0.435063D-01  0.465008D-02  0.671932D-02
      3  -0.462118D-02  0.804212D-05  0.507070D-01  0.348535D-02  0.539629D-02
      4   0.105334D-02 -0.247367D-04 -0.115624D-01 -0.113836D-02 -0.174090D-02
      5  -0.722272D-01 -0.615837D-02  0.882514D+00 -0.841672D-01 -0.138328D+00
      6   0.839307D-01  0.306079D-02 -0.102848D+01 -0.625514D-01 -0.111029D+00
      7  -0.191285D-01 -0.539074D-03  0.234512D+00  0.204621D-01  0.358225D-01
      8  -0.412323D-01 -0.116690D-02  0.505392D+00  0.438972D-01  0.768608D-01
      9  -0.112080D+00 -0.318768D-02  0.137343D+01  0.118650D+00  0.207783D+00
     10  -0.336087D+00 -0.476855D-02  0.412142D+01  0.543267D+00  0.940804D+00
     11   0.895569D+00  0.154302D-02 -0.102805D+02  0.867660D+00  0.153472D+01
     12   0.306971D+00 -0.558667D-01 -0.437437D+01 -0.374411D+00 -0.550490D+00
     13  -0.348596D-02 -0.100803D+00  0.208264D-02 -0.180236D+00 -0.324071D-01
     14  -0.652213D+00 -0.411384D-01  0.786656D+01  0.158968D+00  0.366050D+00
     15   0.111155D+00  0.434783D-02 -0.136038D+01 -0.115937D+00 -0.210991D+00
     16  -0.262689D-01 -0.977590D-02  0.492199D+00  0.237560D-01  0.878573D-01
               126           127           128           129           130 
      1  -0.542891D+02 -0.539045D+02 -0.538913D+02 -0.538766D+02 -0.538763D+02
      2   0.153842D-01  0.000000D+00 -0.124627D-02  0.175508D-04  0.151443D-03
      3   0.122949D-01  0.000000D+00 -0.994627D-03  0.104043D-03  0.124878D-03
      4  -0.396984D-02 -0.108742D-05  0.321227D-03  0.390245D-03 -0.401046D-04
      5  -0.319696D+00  0.000000D+00  0.267227D-01 -0.245453D-03 -0.590426D-03
      6  -0.255436D+00  0.514352D-05  0.213184D-01 -0.145508D-02 -0.530714D-03
      7   0.824798D-01  0.192923D-04 -0.688552D-02 -0.545771D-02  0.168047D-03
      8   0.176967D+00 -0.110514D-03 -0.147734D-01 -0.116120D-01  0.360644D-03
      9   0.478403D+00 -0.839993D-05 -0.399376D-01 -0.317699D-01  0.975213D-03
     10   0.216753D+01  0.720975D-05 -0.180987D+00  0.899241D-02  0.434694D-02
     11   0.358523D+01 -0.673427D-02 -0.262452D+00  0.109192D-01  0.622875D-01
     12  -0.123447D+01  0.466272D-01  0.967768D-01  0.318731D-01  0.665000D-02
     13  -0.630364D-01 -0.398810D-01 -0.465614D-01 -0.461889D-01 -0.512121D-01
     14   0.848789D+00 -0.160281D-01  0.304692D-01  0.350535D-01  0.107739D+00
     15  -0.489649D+00 -0.757659D-01  0.960075D-02  0.120356D+00 -0.343538D-01
     16   0.195866D+00  0.821283D-01 -0.347346D-01  0.536176D-01 -0.224595D-01
               131           132           133           134           135 
      1  -0.538628D+02 -0.538277D+02 -0.532672D+02 -0.532444D+02 -0.529694D+02
      2   0.000000D+00 -0.225617D-04  0.229038D-02  0.210707D-02  0.427283D-04
      3   0.000000D+00 -0.133749D-03  0.181073D-02  0.166976D-02 -0.398163D-04
      4   0.000000D+00 -0.501665D-03 -0.585765D-03 -0.539937D-03  0.869378D-05
      5   0.000000D+00  0.358277D-03 -0.575269D-01 -0.538794D-01 -0.138080D-01
      6   0.000000D+00  0.212391D-02 -0.455757D-01 -0.427390D-01  0.159118D-01
      7  -0.272549D-05  0.796637D-02  0.147381D-01  0.138178D-01 -0.362126D-02
      8   0.595548D-03  0.173649D-01  0.316214D-01  0.296469D-01 -0.780263D-02
      9   0.463136D-03  0.458879D-01  0.854819D-01  0.801445D-01 -0.211993D-01
     10  -0.150261D-03 -0.130151D-01  0.387768D+00  0.363491D+00 -0.633982D-01
     11  -0.673450D-02  0.386822D-02  0.712634D+00  0.666818D+00  0.278673D+00
     12   0.466751D-01  0.470139D-01 -0.146729D+00 -0.140226D+00 -0.422150D-01
     13  -0.399423D-01 -0.459243D-01 -0.106892D+00 -0.125136D+00 -0.801899D-02
     14  -0.160248D-01  0.154310D-01  0.996798D-01  0.941539D-01 -0.143511D+00
     15  -0.757698D-01  0.419726D-01 -0.818378D-01 -0.780379D-01  0.214374D-01
     16   0.822099D-01  0.820479D-01 -0.110322D-01 -0.167857D-01  0.226931D-01
               136           137           138 
      1  -0.529459D+02 -0.523551D+02 -0.520918D+02
      2   0.630603D-03  0.211127D-03  0.632427D-02
      3  -0.721011D-03  0.168704D-03  0.506555D-02
      4   0.163868D-03 -0.544733D-04 -0.163495D-02
      5  -0.224827D-01 -0.626134D-02 -0.138125D+00
      6   0.259662D-01 -0.497729D-02 -0.110660D+00
      7  -0.591173D-02  0.160859D-02  0.357151D-01
      8  -0.127418D-01  0.345133D-02  0.766301D-01
      9  -0.346313D-01  0.933004D-02  0.207159D+00
     10  -0.103654D+00  0.423030D-01  0.938224D+00
     11   0.387558D+00  0.780520D-01  0.198876D+01
     12  -0.682964D-02 -0.162318D-01 -0.909162D-01
     13  -0.859432D-02  0.170178D-02  0.371535D+00
     14  -0.221940D+00  0.155044D-01  0.349250D+00
     15   0.347507D-01 -0.952801D-02 -0.208876D+00
     16   0.199136D-01  0.246250D-02  0.728642D-01
 1\1\WWW.WCSS.PL-BEM-WN0838\SP\UCIS-Full\6-31G(d)\H2O1(3)\ROOT\08-Aug-2
 019\0\\#P CIS(50-50,NStates=300,Conver=10,Full,NonAdiabaticCoupling)/6
 -31G* 6D Density=RhoCI GFPrint NoSymm SCF(conver=11,novaracc,FinalIter
 ation,QC,VeryTightLinEq)\\test\\0,3\O,0,-3.08471,1.12313,0.00396\H,0,-
 2.11791,0.90877,0.01763\H,0,-3.12325,2.07922,-0.24921\\Version=ES64L-G
 16RevA.03\HF=-75.7604057\S2=2.006419\S2-1=0.\S2A=2.000017\RMSD=7.189e-
 12\Dipole=0.,0.,0.\PG=CS [SG(H2O1)]\\@


 We're simply so accustomed to the marvels of everyday thought
 that we never wonder about it.
 -- Marvin Minsky in "Why people think computers are smart"
 Job cpu time:       0 days  0 hours  0 minutes  3.1 seconds.
 Elapsed time:       0 days  0 hours  0 minutes  3.4 seconds.
 File lengths (MBytes):  RWF=      6 Int=      0 D2E=      0 Chk=      3 Scr=      1
 Normal termination of Gaussian 16 at Thu Aug  8 09:09:12 2019.
